#     Step Nr.          Time[fs]        Kin.[a.u.]          Temp[K]            Pot.[a.u.]        Cons Qty[a.u.]        UsedTime[s]
       801          801.000000         0.802628432       403.261273870     -7716.550106487     -7714.273408679      1664.392144964
       802          802.000000         0.804341084       404.121754177     -7716.557591915     -7714.275778170       102.052669539
       803          803.000000         0.803927946       403.914183059     -7716.563812649     -7714.278972220        58.077040520
       804          804.000000         0.792049351       397.946069935     -7716.556294315     -7714.281924164        50.977465046
       805          805.000000         0.774247158       389.001787680     -7716.540249407     -7714.282292131        65.593460863
       806          806.000000         0.782259625       393.027458287     -7716.551206465     -7714.285731964        65.783039553
       807          807.000000         0.797734149       400.802259182     -7716.572834535     -7714.288589265        54.568339421
       808          808.000000         0.793242680       398.545629421     -7716.571888287     -7714.288549132        98.675063475
       809          809.000000         0.779168814       391.474555107     -7716.558171095     -7714.287834672        69.317791291
       810          810.000000         0.774544959       389.151410920     -7716.552106248     -7714.287767388        95.032740620
       811          811.000000         0.780609088       392.198185946     -7716.562379149     -7714.289821421        98.586682870
       812          812.000000         0.783710426       393.756378307     -7716.572778955     -7714.291954734       113.696946905
       813          813.000000         0.774702175       389.230400313     -7716.569140267     -7714.293523493       117.168815074
       814          814.000000         0.753404375       378.529835105     -7716.554158988     -7714.295610542       120.877823819
       815          815.000000         0.740045482       371.817981613     -7716.544431970     -7714.295795079       117.149311692
       816          816.000000         0.754412745       379.036465907     -7716.566949517     -7714.301808520       139.078822928
       817          817.000000         0.765611730       384.663125432     -7716.583923992     -7714.302422039       116.970434602
       818          818.000000         0.767753000       385.738955067     -7716.589284874     -7714.304440963       171.543849937
       819          819.000000         0.770800665       387.270180865     -7716.597973056     -7714.308161093       164.222359373
       820          820.000000         0.784955114       394.381742038     -7716.616233733     -7714.310604391       164.032116997
       821          821.000000         0.804500138       404.201667021     -7716.636614414     -7714.312656089       142.168542251
       822          822.000000         0.813149865       408.547513750     -7716.651361146     -7714.317007601       163.847128888
       823          823.000000         0.816536405       410.248998618     -7716.658596940     -7714.320593827       149.416039541
       824          824.000000         0.808640658       406.281971667     -7716.657655313     -7714.321842645       171.160688815
       825          825.000000         0.807391681       405.654453209     -7716.661083238     -7714.321737706       131.067903020
       826          826.000000         0.823239305       413.616708886     -7716.683377311     -7714.328338218       185.557052759
       827          827.000000         0.822581982       413.286452901     -7716.686783750     -7714.330213461       138.350518432
       828          828.000000         0.809210756       406.568403302     -7716.678776103     -7714.333168282       207.935599743
       829          829.000000         0.796988657       400.427704840     -7716.672453784     -7714.337319511       185.218702590
       830          830.000000         0.789323599       396.576581414     -7716.668544174     -7714.339805420       178.104400444
       831          831.000000         0.786385604       395.100456780     -7716.666049213     -7714.341749349       174.340777881
       832          832.000000         0.778883240       391.331075300     -7716.662226021     -7714.344229559       174.420278666
       833          833.000000         0.768315123       386.021380117     -7716.654304995     -7714.348350322       163.491456956
       834          834.000000         0.747032068       375.328222968     -7716.633891707     -7714.349958758       159.872853484
       835          835.000000         0.729413047       366.475971427     -7716.620665205     -7714.351634736       174.299808458
       836          836.000000         0.731749254       367.649742292     -7716.624383190     -7714.353114568       159.890434326
       837          837.000000         0.731541638       367.545430772     -7716.623597735     -7714.351686305       218.481409576
       838          838.000000         0.725965902       364.744036763     -7716.619273698     -7714.352019521       174.455234574
       839          839.000000         0.721086719       362.292609297     -7716.616863013     -7714.354147063       218.420912849
       840          840.000000         0.723898893       363.705517909     -7716.619725078     -7714.354715287       174.477014818
       841          841.000000         0.733135107       368.346030637     -7716.634692163     -7714.357718638       240.532004297
       842          842.000000         0.747517579       375.572156623     -7716.653405635     -7714.361147784       218.472186984
       843          843.000000         0.749238866       376.436975422     -7716.651923091     -7714.359051981       229.424916210
       844          844.000000         0.727169167       365.348588363     -7716.625498561     -7714.356205550       251.349811218
       845          845.000000         0.711457150       357.454464421     -7716.616497655     -7714.357741406       295.164580722
       846          846.000000         0.729857190       366.699120507     -7716.641521947     -7714.361528521       262.061837248
       847          847.000000         0.743938140       373.773753531     -7716.649217420     -7714.356118080       299.045359844
       848          848.000000         0.736686929       370.130558101     -7716.638864423     -7714.349863462       302.699211968
       849          849.000000         0.731553720       367.551500738     -7716.636664167     -7714.350765111       313.792350222
       850          850.000000         0.740524838       372.058822517     -7716.644929274     -7714.348477750       313.111471783
       851          851.000000         0.764182041       383.944812845     -7716.664693887     -7714.346219256       336.238857299
       852          852.000000         0.778954110       391.366682327     -7716.682749440     -7714.346259144       311.201044479
       853          853.000000         0.772901584       388.325736883     -7716.669949417     -7714.337714046       354.946934311
       854          854.000000         0.748797571       376.215257332     -7716.647079315     -7714.333120018       315.118713319
       855          855.000000         0.751248864       377.446850598     -7716.646765293     -7714.328792379       401.890743347
       856          856.000000         0.768738185       386.233937524     -7716.661414998     -7714.328077462       324.173538380
       857          857.000000         0.768592162       386.160571727     -7716.658243302     -7714.325759149       320.671202341
       858          858.000000         0.759477246       381.581002156     -7716.641264794     -7714.319303449       338.676001302
       859          859.000000         0.754680003       379.170743186     -7716.629680422     -7714.312579802       368.398340421
       860          860.000000         0.760802110       382.246648412     -7716.636294894     -7714.312337619       320.023334253
       861          861.000000         0.769428805       386.580922752     -7716.648039321     -7714.312639742       364.536025839
       862          862.000000         0.770733526       387.236448332     -7716.647942118     -7714.309675143       312.629099562
       863          863.000000         0.758022916       380.850309325     -7716.634061253     -7714.307845582       388.080575385
       864          864.000000         0.742975982       373.290340868     -7716.622116288     -7714.309638025       312.999907248
       865          865.000000         0.748213119       375.921613510     -7716.620450341     -7714.301246802       425.495697047
       866          866.000000         0.754731445       379.196589240     -7716.633609033     -7714.304986904       385.740818266
       867          867.000000         0.751994177       377.821314869     -7716.631898832     -7714.305469285       324.219125434
       868          868.000000         0.753255903       378.455238531     -7716.624830983     -7714.298966616       361.140332625
       869          869.000000         0.758276544       380.977738672     -7716.633387019     -7714.298441737       405.068415360
       870          870.000000         0.774639443       389.198882157     -7716.652093197     -7714.303409978       504.054526107
       871          871.000000         0.792038290       397.940512707     -7716.658342107     -7714.295015791       499.103014035
       872          872.000000         0.805421196       404.664430603     -7716.671824297     -7714.297694165       385.993471120
       873          873.000000         0.802998144       403.447026793     -7716.673900777     -7714.304496225       404.237090321
       874          874.000000         0.782271623       393.033486686     -7716.650759874     -7714.299762953       517.247084081
       875          875.000000         0.777405597       390.588669193     -7716.650191851     -7714.306558609       574.102699423
       876          876.000000         0.768659448       386.194377867     -7716.650337849     -7714.309271081       418.984710011
       877          877.000000         0.761217789       382.455496032     -7716.622371194     -7714.287422940       420.395209305
       878          878.000000         0.753650387       378.653437739     -7716.629302001     -7714.298450819       609.634855017
       879          879.000000         0.748906587       376.270029965     -7716.638426637     -7714.308814576       408.637772963
       880          880.000000         0.755875421       379.771352557     -7716.651024869     -7714.315441040       410.428943587
       881          881.000000         0.771984491       387.864965533     -7716.669699625     -7714.318092242       502.963869398
       882          882.000000         0.785270464       394.540182010     -7716.691627477     -7714.326532451       515.079327275
       883          883.000000         0.779215073       391.497796919     -7716.689725143     -7714.332092812       495.255269438
       884          884.000000         0.762106046       382.901779251     -7716.675330910     -7714.332320236       443.754652235
       885          885.000000         0.760880939       382.286253837     -7716.679026542     -7714.336959444       410.590637289
       886          886.000000         0.759505327       381.595111017     -7716.686339171     -7714.345621997       488.771321986
       887          887.000000         0.752453712       378.052197067     -7716.682123268     -7714.346481833       439.723909135
       888          888.000000         0.738896030       371.240467312     -7716.678429301     -7714.350471646       312.322522179
       889          889.000000         0.735361184       369.464469531     -7716.679640637     -7714.355858993       408.200768997
       890          890.000000         0.742490363       373.046353316     -7716.687957044     -7714.356265706       301.881369504
       891          891.000000         0.758004199       380.840905586     -7716.688772194     -7714.342262319       400.146831036
       892          892.000000         0.756112584       379.890508893     -7716.707503552     -7714.355577838       374.301617277
       893          893.000000         0.740690646       372.142128615     -7716.690429111     -7714.350265319       419.407676967
       894          894.000000         0.736040853       369.805952697     -7716.685263379     -7714.353491124       401.346928953
       895          895.000000         0.738179054       370.880239928     -7716.684552872     -7714.349654610       477.521594001
       896          896.000000         0.733944128       368.752503986     -7716.685039496     -7714.350826410       354.477154330
       897          897.000000         0.731697108       367.623542830     -7716.693171726     -7714.363248120       514.566289053
       898          898.000000         0.719985701       361.739429236     -7716.694206089     -7714.368642802       347.463874858
       899          899.000000         0.723127454       363.317927026     -7716.691174901     -7714.364198637       482.629343221
       900          900.000000         0.733852740       368.706588296     -7716.700556810     -7714.360734369       429.062395955
       901          901.000000         0.749583269       376.610012235     -7716.722831774     -7714.366033324       387.289909094
       902          902.000000         0.748447575       376.039410357     -7716.726776556     -7714.370102011       346.798643626
       903          903.000000         0.729059741       366.298461531     -7716.700931278     -7714.363513126       314.253048637
       904          904.000000         0.723706454       363.608831798     -7716.691585264     -7714.358882029       347.060943425
       905          905.000000         0.728715335       366.125422802     -7716.696343532     -7714.356049158       424.827356707
       906          906.000000         0.723855623       363.683777839     -7716.693507022     -7714.356624241       504.971917449
       907          907.000000         0.712155448       357.805307837     -7716.685681453     -7714.357792143       409.922149444
       908          908.000000         0.705144998       354.283076462     -7716.672327846     -7714.347299021       431.706008526
       909          909.000000         0.714243215       358.854255952     -7716.680510795     -7714.346983189       388.353165407
       910          910.000000         0.733009276       368.282810164     -7716.687582037     -7714.336808567       481.356221616
       911          911.000000         0.747586991       375.607030695     -7716.707616210     -7714.342624326       429.697842658
       912          912.000000         0.747620837       375.624036129     -7716.707881143     -7714.343136057       411.474833358
       913          913.000000         0.747100888       375.362800313     -7716.700701636     -7714.336183046       404.360058097
       914          914.000000         0.763494131       383.599189154     -7716.705046705     -7714.324338245       424.473939383
       915          915.000000         0.765885610       384.800730018     -7716.715338399     -7714.328702317       508.979452634
       916          916.000000         0.756037376       379.852722810     -7716.708292425     -7714.332075003       595.699572008
       917          917.000000         0.749106915       376.370679807     -7716.698682911     -7714.332233790       433.469480143
       918          918.000000         0.753962374       378.810187925     -7716.697493173     -7714.328558391       641.704700575
       919          919.000000         0.764260550       383.984257867     -7716.714478393     -7714.333307581       388.119575246
       920          920.000000         0.773729593       388.741750016     -7716.707787273     -7714.319505435       678.834207079
       921          921.000000         0.764382542       384.045549979     -7716.697195740     -7714.318514837       417.389933550
       922          922.000000         0.746363587       374.992361175     -7716.668322142     -7714.309851134       431.710818308
       923          923.000000         0.742316327       372.958913095     -7716.662183006     -7714.305728419       388.947062032
       924          924.000000         0.752876116       378.264423787     -7716.669140591     -7714.302214290       499.178408307
       925          925.000000         0.741473696       372.535553367     -7716.668340819     -7714.308208504       343.716290902
       926          926.000000         0.725950912       364.736505137     -7716.656334466     -7714.313838180       429.293636440
       927          927.000000         0.716305763       359.890533066     -7716.647043684     -7714.314677099       311.081421247
       928          928.000000         0.717195039       360.337328329     -7716.641090636     -7714.304331224       483.682680077
       929          929.000000         0.727410188       365.469683553     -7716.660650006     -7714.310699940       406.625554767
       930          930.000000         0.744533280       374.072767458     -7716.678840086     -7714.313821114       411.284480316
       931          931.000000         0.752983944       378.318599485     -7716.687723139     -7714.314578369       348.191586837
       932          932.000000         0.747751449       375.689658615     -7716.689083648     -7714.318473446       341.320320500
       933          933.000000         0.753250995       378.452772922     -7716.695145630     -7714.319500332       322.993622909
       934          934.000000         0.766193789       384.955567098     -7716.706182056     -7714.314861025       486.798763277
       935          935.000000         0.770045850       386.890942124     -7716.722444325     -7714.326230135       412.733281923
       936          936.000000         0.766491944       385.105367803     -7716.714192039     -7714.324261254       448.665975801
       937          937.000000         0.755668261       379.667269990     -7716.696578396     -7714.318536720       435.518416186
       938          938.000000         0.742100526       372.850489037     -7716.674179216     -7714.310071595       456.347527509
       939          939.000000         0.734621919       369.093043404     -7716.684573310     -7714.328475699       353.742861594
       940          940.000000         0.735934814       369.752675699     -7716.686581278     -7714.330722087       418.071997284
       941          941.000000         0.736765267       370.169916666     -7716.684716696     -7714.326885241       506.214489291
       942          942.000000         0.735179839       369.373356912     -7716.686571408     -7714.332849377       506.142544571
       943          943.000000         0.718832272       361.159916508     -7716.671587103     -7714.331535436       403.898671043
       944          944.000000         0.717105225       360.292203434     -7716.667914369     -7714.329147208       509.369481810
       945          945.000000         0.723491918       363.501043410     -7716.684391674     -7714.336552522       477.592307959
       946          946.000000         0.717463837       360.472379548     -7716.681101148     -7714.334972502       526.998339763
       947          947.000000         0.707506734       355.469673716     -7716.666142205     -7714.331514346       580.992093287
       948          948.000000         0.698016212       350.701390135     -7716.666599416     -7714.338574751       660.070673004
       949          949.000000         0.699275354       351.334015510     -7716.675245672     -7714.340980392       422.953473905
       950          950.000000         0.711981820       357.718072600     -7716.690800676     -7714.343324924       497.832188390
       951          951.000000         0.720854524       362.175948057     -7716.701085867     -7714.339814722       537.034579129
       952          952.000000         0.730551261       367.047839804     -7716.704148141     -7714.333396263       596.937295148
       953          953.000000         0.732187110       367.869732250     -7716.718169104     -7714.347118071       493.431572784
       954          954.000000         0.734217431       368.889818265     -7716.704750481     -7714.334947441       646.890828758
       955          955.000000         0.741166305       372.381111924     -7716.712492450     -7714.336080882       596.927318427
       956          956.000000         0.742404213       373.003068990     -7716.723029866     -7714.346762786       414.796546543
       957          957.000000         0.735297399       369.432421882     -7716.711032994     -7714.343219975       488.947745401
       958          958.000000         0.728756947       366.146329868     -7716.697350899     -7714.333008043       463.444032869
       959          959.000000         0.729731835       366.636138591     -7716.705953011     -7714.339766941       516.864863580
       960          960.000000         0.730935776       367.241029941     -7716.709794411     -7714.343469526       504.192046348
       961          961.000000         0.727950012       365.740904884     -7716.690280659     -7714.327957642       501.304683525
       962          962.000000         0.724952278       364.234765949     -7716.692741699     -7714.330784561       507.914922632
       963          963.000000         0.733036518       368.296497115     -7716.704419922     -7714.328849611       445.171645291
       964          964.000000         0.750192154       376.915932147     -7716.722767188     -7714.329042298       489.792217790
       965          965.000000         0.755505134       379.585310597     -7716.725375602     -7714.329004756       392.603995371
       966          966.000000         0.743471020       373.539060709     -7716.706665969     -7714.324280680       664.778060810
       967          967.000000         0.738531842       371.057489702     -7716.699283283     -7714.326638344       457.504892732
       968          968.000000         0.751201784       377.423196145     -7716.709929585     -7714.324399591       597.787974193
       969          969.000000         0.767090780       385.406238583     -7716.727528368     -7714.324864710       566.931749952
       970          970.000000         0.758730581       381.205858453     -7716.725451318     -7714.324738497       512.967565667
       971          971.000000         0.742986100       373.295424267     -7716.710947019     -7714.322722313       542.249929565
       972          972.000000         0.738657465       371.120605873     -7716.709752970     -7714.323903411       498.337093731
       973          973.000000         0.751173597       377.409034587     -7716.708657406     -7714.315666904       530.110400816
       974          974.000000         0.740964613       372.279777145     -7716.715244117     -7714.323030468       510.023804176
       975          975.000000         0.732417772       367.985623168     -7716.701565404     -7714.320505635       519.682791171
       976          976.000000         0.720982893       362.240444280     -7716.687838392     -7714.314557028       480.837923472
       977          977.000000         0.713270919       358.365748979     -7716.689363425     -7714.318258565       505.275964544
       978          978.000000         0.712268019       357.861866086     -7716.680143515     -7714.312156564       502.565245439
       979          979.000000         0.712645403       358.051473725     -7716.687604698     -7714.314537644       486.889887657
       980          980.000000         0.716929833       360.204081947     -7716.687801256     -7714.306985101       504.564330864
       981          981.000000         0.718725819       361.106432121     -7716.688989149     -7714.307121525       499.526751610
       982          982.000000         0.719300907       361.395370720     -7716.684383938     -7714.300120897       449.637775196
       983          983.000000         0.724316723       363.915446784     -7716.691826432     -7714.304271665       442.053100203
       984          984.000000         0.725805406       364.663399588     -7716.691994403     -7714.303481825       601.590064564
       985          985.000000         0.725165718       364.342003645     -7716.694211782     -7714.303985271       483.329931304
       986          986.000000         0.730700387       367.122764239     -7716.707843305     -7714.312382744       444.167251082
       987          987.000000         0.737044948       370.310436035     -7716.713499436     -7714.311974323       485.149786660
       988          988.000000         0.734419421       368.991303421     -7716.704936039     -7714.302289296       406.837186969
       989          989.000000         0.736496355       370.034808482     -7716.704779207     -7714.303062538       485.841113427
       990          990.000000         0.743847887       373.728408395     -7716.716603205     -7714.305964825       409.249438711
       991          991.000000         0.748768173       376.200487403     -7716.719003365     -7714.300301813       412.875509592
       992          992.000000         0.741551928       372.574859204     -7716.716782827     -7714.304120810       452.860498119
       993          993.000000         0.729749305       366.644916391     -7716.715327904     -7714.316734973       495.899691322
       994          994.000000         0.718807008       361.147223453     -7716.699453921     -7714.314399710       494.138778614
       995          995.000000         0.711926915       357.690486730     -7716.682086149     -7714.303449174       505.164787673
       996          996.000000         0.712371071       357.913642115     -7716.682678372     -7714.298194747       352.805368498
       997          997.000000         0.726857561       365.192029484     -7716.707671983     -7714.309192352       592.452421039
       998          998.000000         0.737625132       370.601935506     -7716.724366599     -7714.315971037       481.002305757
       999          999.000000         0.740361661       371.976838442     -7716.716477167     -7714.304319687       404.232591101
      1000         1000.000000         0.749137139       376.385865024     -7716.726090702     -7714.304747841       445.351917560
