#     Step Nr.          Time[fs]        Kin.[a.u.]          Temp[K]            Pot.[a.u.]        Cons Qty[a.u.]        UsedTime[s]
       401          401.000000         0.903491271       453.937371451     -7716.075773231     -7714.261178134      1969.149396781
       402          402.000000         0.901826079       453.100736121     -7716.076682413     -7714.264360785       118.519830774
       403          403.000000         0.901295480       452.834149250     -7716.079690133     -7714.268428022        51.391997020
       404          404.000000         0.890422969       447.371518691     -7716.079338929     -7714.272185216        66.534404884
       405          405.000000         0.884471460       444.381326979     -7716.078635829     -7714.275342303        55.389649758
       406          406.000000         0.884473254       444.382228307     -7716.082516321     -7714.278156226        66.590619958
       407          407.000000         0.883014185       443.649154110     -7716.088601821     -7714.279785242        51.715559116
       408          408.000000         0.884626780       444.459363396     -7716.094056057     -7714.280145653        59.147971714
       409          409.000000         0.885280869       444.787994523     -7716.098009359     -7714.279573117        51.778136692
       410          410.000000         0.884744675       444.518596934     -7716.101690779     -7714.279506813       103.822626809
       411          411.000000         0.890440830       447.380492354     -7716.108473593     -7714.280183543        55.468621723
       412          412.000000         0.899215528       451.789127817     -7716.118657819     -7714.281573777       119.212632155
       413          413.000000         0.903653064       454.018660412     -7716.127550283     -7714.283180369        92.675389027
       414          414.000000         0.909601636       457.007376717     -7716.134092592     -7714.284121914        96.520603083
       415          415.000000         0.916075330       460.259928184     -7716.144599966     -7714.284810207        92.761017878
       416          416.000000         0.925413881       464.951857660     -7716.159746615     -7714.285391698       108.482303002
       417          417.000000         0.934168887       469.350599069     -7716.173552551     -7714.284566865        77.882487882
       418          418.000000         0.944628945       474.606002595     -7716.184543624     -7714.283401344       119.272963591
       419          419.000000         0.949069250       476.836926415     -7716.189607516     -7714.281534084        96.612256266
       420          420.000000         0.954565848       479.598559440     -7716.193417695     -7714.280511193       119.360233873
       421          421.000000         0.963863071       484.269724563     -7716.202057725     -7714.280988586        96.533584842
       422          422.000000         0.964775815       484.728310937     -7716.210590069     -7714.282890738       119.388034526
       423          423.000000         0.965182098       484.932438005     -7716.208158049     -7714.284378980       103.814645869
       424          424.000000         0.950724751       477.668692806     -7716.199740651     -7714.285301093       108.435969591
       425          425.000000         0.937749646       471.149664672     -7716.194253369     -7714.286700193       108.477603054
       426          426.000000         0.927620451       466.060495124     -7716.186480646     -7714.286803665       108.429835306
       427          427.000000         0.918465241       461.460681168     -7716.175546242     -7714.285315622       119.402007928
       428          428.000000         0.908158742       456.282429834     -7716.167018646     -7714.284876232       145.387928270
       429          429.000000         0.899604688       451.984651801     -7716.163674748     -7714.284451780        74.258778929
       430          430.000000         0.897539043       450.946818365     -7716.171926986     -7714.287920316       167.754736409
       431          431.000000         0.897597156       450.976015645     -7716.179866803     -7714.291417389       123.127663175
       432          432.000000         0.893021565       448.677120291     -7716.175672994     -7714.292267370       156.512293745
       433          433.000000         0.884860480       444.576780687     -7716.166151430     -7714.290535545       130.487699544
       434          434.000000         0.884908765       444.601040289     -7716.164928009     -7714.289826775       156.588098621
       435          435.000000         0.883236146       443.760672817     -7716.164965683     -7714.289259474       145.414957812
       436          436.000000         0.877733046       440.995773364     -7716.160227453     -7714.288432498       141.767525296
       437          437.000000         0.865728839       434.964549602     -7716.156931377     -7714.288487064       141.821719319
       438          438.000000         0.869750591       436.985181522     -7716.159648418     -7714.287390219       119.453453091
       439          439.000000         0.876997038       440.625983825     -7716.174809512     -7714.291276775       167.773868322
       440          440.000000         0.887241958       445.773296668     -7716.184158715     -7714.293262873       145.712955041
       441          441.000000         0.884346893       444.318741208     -7716.179327925     -7714.292522820       182.835766095
       442          442.000000         0.883509653       443.898090038     -7716.175595544     -7714.291361371       179.157488367
       443          443.000000         0.887952209       446.130144990     -7716.185193347     -7714.291484155       179.244247252
       444          444.000000         0.893502539       448.918774467     -7716.188754382     -7714.288913425       145.649913303
       445          445.000000         0.889504311       446.909961225     -7716.179674626     -7714.285773379       156.784567372
       446          446.000000         0.881154320       442.714709923     -7716.170100466     -7714.283213961       134.748174736
       447          447.000000         0.877922269       441.090843670     -7716.172456742     -7714.282835231       179.625450178
       448          448.000000         0.894825227       449.583327073     -7716.183655574     -7714.282187352       134.496959275
       449          449.000000         0.904057010       454.221613605     -7716.191186929     -7714.282763528       179.212158867
       450          450.000000         0.893212874       448.773239127     -7716.182618413     -7714.281858709       164.363645492
       451          451.000000         0.878962320       441.613392479     -7716.171739323     -7714.279204405       156.674272022
       452          452.000000         0.882625138       443.453686771     -7716.179311177     -7714.280639105       156.781200086
       453          453.000000         0.890070229       447.194293210     -7716.187137009     -7714.280939077       134.539261392
       454          454.000000         0.883094488       443.689500446     -7716.181131362     -7714.280580766       191.031795272
       455          455.000000         0.873104429       438.670236718     -7716.169124228     -7714.279551846       168.068061924
       456          456.000000         0.868968690       436.592334291     -7716.163354588     -7714.276120497       209.753679941
       457          457.000000         0.876300379       440.275964198     -7716.170240483     -7714.274673834       179.096520226
       458          458.000000         0.880021339       442.145470813     -7716.174490784     -7714.273723350       201.406839733
       459          459.000000         0.865708663       434.954412285     -7716.166188825     -7714.271825240       182.388621503
       460          460.000000         0.859090060       431.629055144     -7716.159072213     -7714.270457514       197.068106258
       461          461.000000         0.864626105       434.410507606     -7716.167522993     -7714.271601528       182.152167895
       462          462.000000         0.875846828       440.048088420     -7716.181741329     -7714.274821428       245.823739118
       463          463.000000         0.878411560       441.336676520     -7716.187800697     -7714.277223033       223.528331084
       464          464.000000         0.876644195       440.448706607     -7716.187283253     -7714.276456293       245.900864418
       465          465.000000         0.884016749       444.152868007     -7716.189235155     -7714.274443454       305.506289806
       466          466.000000         0.895306249       449.825004993     -7716.201242749     -7714.275936750       249.032552990
       467          467.000000         0.901220458       452.796456448     -7716.220172453     -7714.284993414       234.166871422
       468          468.000000         0.902805998       453.593072468     -7716.223292011     -7714.286267815       249.088947363
       469          469.000000         0.902674599       453.527054544     -7716.217778534     -7714.279604035       316.579960150
       470          470.000000         0.908962610       456.686313898     -7716.226063040     -7714.280058178       319.626260864
       471          471.000000         0.911295292       457.858313519     -7716.242376651     -7714.291238123       308.275858383
       472          472.000000         0.907049582       455.725158795     -7716.236927214     -7714.289480851       316.286708334
       473          473.000000         0.903021035       453.701112613     -7716.227269928     -7714.282194006       316.080722350
       474          474.000000         0.903037737       453.709504311     -7716.242160132     -7714.292478988       305.377749143
       475          475.000000         0.903729863       454.057246419     -7716.252878985     -7714.298814100       293.812308766
       476          476.000000         0.904687986       454.538632278     -7716.238163994     -7714.285808627       414.173913712
       477          477.000000         0.898099528       451.228420524     -7716.237950825     -7714.289587435       338.234047859
       478          478.000000         0.897263105       450.808179972     -7716.246427655     -7714.297155631       339.276977451
       479          479.000000         0.904185756       454.286298639     -7716.255412902     -7714.300634258       343.708264495
       480          480.000000         0.902525130       453.451957156     -7716.256062701     -7714.302277285       417.945839845
       481          481.000000         0.892107256       448.217747839     -7716.241102814     -7714.297155040       530.180339339
       482          482.000000         0.885865532       445.081744564     -7716.231310222     -7714.291073914       512.527631888
       483          483.000000         0.893470603       448.902729002     -7716.250018849     -7714.300597276       575.366035746
       484          484.000000         0.911398604       457.910220257     -7716.267267708     -7714.306130714       410.885932528
       485          485.000000         0.913250607       458.840714114     -7716.255623190     -7714.288296650       437.911076250
       486          486.000000         0.915234729       459.837588630     -7716.278938295     -7714.307339842       527.700421371
       487          487.000000         0.916134558       460.289685705     -7716.286997712     -7714.309117200       419.313467700
       488          488.000000         0.926520467       465.507835011     -7716.294257213     -7714.308775014       546.511380756
       489          489.000000         0.925251507       464.870276361     -7716.300901383     -7714.313921338       511.130748816
       490          490.000000         0.917624982       461.038513335     -7716.290120961     -7714.313221567       554.037035096
       491          491.000000         0.900026916       452.196790065     -7716.284503118     -7714.317670441       491.228725548
       492          492.000000         0.895339130       449.841525019     -7716.284966766     -7714.317082354       434.784383532
       493          493.000000         0.900801452       452.585936734     -7716.289313579     -7714.319027701       484.223189749
       494          494.000000         0.893001788       448.667184013     -7716.285475168     -7714.321469561       491.992593673
       495          495.000000         0.885677225       444.987134093     -7716.275081786     -7714.319854635       488.717033689
       496          496.000000         0.880622915       442.447718476     -7716.257833745     -7714.307296938       416.568593027
       497          497.000000         0.878913075       441.588650556     -7716.253065115     -7714.302288174       504.839504383
       498          498.000000         0.869395667       436.806858570     -7716.267404009     -7714.318512252       536.283956248
       499          499.000000         0.854596324       429.371285997     -7716.257936100     -7714.321028532       505.295951532
       500          500.000000         0.841499550       422.791128443     -7716.242322754     -7714.316677007       509.526114052
       501          501.000000         0.846770979       425.439630285     -7716.251900119     -7714.322307610       439.610416468
       502          502.000000         0.858304125       431.234181234     -7716.264889124     -7714.325386443       429.794511442
       503          503.000000         0.855714584       429.933128836     -7716.265019913     -7714.325956547       491.533778337
       504          504.000000         0.849476803       426.799106335     -7716.247881638     -7714.315398829       514.259633231
       505          505.000000         0.846789598       425.448985022     -7716.254895893     -7714.321839602       611.025018847
       506          506.000000         0.859719007       431.945054699     -7716.263543738     -7714.319564832       492.002919405
       507          507.000000         0.866131392       435.166802711     -7716.269401096     -7714.317751066       588.236384210
       508          508.000000         0.858614289       431.390015637     -7716.271482685     -7714.325820179       492.521622723
       509          509.000000         0.847824502       425.968947456     -7716.264009925     -7714.326309823       503.183624232
       510          510.000000         0.852645855       428.391320127     -7716.261235470     -7714.319322526       503.409386153
       511          511.000000         0.860642069       432.408824873     -7716.262783253     -7714.311215985       491.448391423
       512          512.000000         0.860476653       432.325715456     -7716.272928705     -7714.321085847       549.173027961
       513          513.000000         0.850330124       427.227836996     -7716.267656172     -7714.325246502       420.713754377
       514          514.000000         0.842074351       423.079923189     -7716.245457553     -7714.309014139       453.294792452
       515          515.000000         0.850162345       427.143540246     -7716.256019104     -7714.314660552       507.126090514
       516          516.000000         0.853878567       429.010666232     -7716.265500883     -7714.322060382       414.602652370
       517          517.000000         0.845055707       424.577833513     -7716.251438275     -7714.316577846       481.233429997
       518          518.000000         0.839859052       421.966899685     -7716.245903933     -7714.315062231       510.962003920
       519          519.000000         0.850398407       427.262143864     -7716.261075483     -7714.319353081       575.714011506
       520          520.000000         0.859550944       431.860615517     -7716.252455068     -7714.296888864       447.277502810
       521          521.000000         0.860447430       432.311033090     -7716.257328924     -7714.298610051       590.256344697
       522          522.000000         0.859816934       431.994255568     -7716.269481751     -7714.314390677       529.591574394
       523          523.000000         0.854499645       429.322711880     -7716.261123439     -7714.305272184       538.962094987
       524          524.000000         0.856986115       430.571979016     -7716.268011338     -7714.306265728       749.964255603
       525          525.000000         0.853546487       428.843821049     -7716.283128789     -7714.323767563       500.641431831
       526          526.000000         0.843588101       423.840470429     -7716.266387633     -7714.320336213       508.995554448
       527          527.000000         0.832642630       418.341182711     -7716.229228223     -7714.291088924       451.269564806
       528          528.000000         0.841930480       423.007638814     -7716.255869459     -7714.310150277       588.481397658
       529          529.000000         0.849223844       426.672013390     -7716.269725826     -7714.311766321       458.250624043
       530          530.000000         0.854337349       429.241170560     -7716.278560005     -7714.317031408       421.073810902
       531          531.000000         0.854428026       429.286728965     -7716.259469361     -7714.299007324       445.518251077
       532          532.000000         0.861705530       432.943135064     -7716.274036547     -7714.308326416       705.621553345
       533          533.000000         0.869547787       436.883287503     -7716.281538173     -7714.308918292       494.846108808
       534          534.000000         0.862363211       433.273570720     -7716.264999432     -7714.298359747       590.921190638
       535          535.000000         0.847146800       425.628452617     -7716.251962584     -7714.300851032       587.288008431
       536          536.000000         0.837375563       420.719130682     -7716.250857119     -7714.309016385       459.525556525
       537          537.000000         0.837506015       420.784672902     -7716.257615220     -7714.314695762       358.111552591
       538          538.000000         0.836603350       420.331150791     -7716.258494824     -7714.313300992       421.990149109
       539          539.000000         0.837927813       420.996595141     -7716.243999318     -7714.301153775       441.289933180
       540          540.000000         0.837200127       420.630986783     -7716.235500363     -7714.293722626       442.801053891
       541          541.000000         0.844988849       424.544242125     -7716.250649638     -7714.301840868       552.761797264
       542          542.000000         0.850743725       427.435640555     -7716.270144882     -7714.311945768       412.711171460
       543          543.000000         0.850822912       427.475426138     -7716.272252809     -7714.312821737       508.504133341
       544          544.000000         0.843814715       423.954326797     -7716.263367292     -7714.307917926       548.170841024
       545          545.000000         0.844823525       424.461179315     -7716.261258103     -7714.304584075       540.443104154
       546          546.000000         0.848262953       426.189236716     -7716.278066454     -7714.312402639       607.107374383
       547          547.000000         0.854282631       429.213678579     -7716.289420722     -7714.312027650       407.508634277
       548          548.000000         0.859831550       432.001599187     -7716.302017635     -7714.314008822       505.099643596
       549          549.000000         0.869797084       437.008540866     -7716.309792528     -7714.309560936       545.273367627
       550          550.000000         0.886233985       445.266864858     -7716.325938421     -7714.308935762       732.650934904
       551          551.000000         0.900283487       452.325698093     -7716.347457481     -7714.316073386       508.993399278
       552          552.000000         0.903931467       454.158537117     -7716.352006812     -7714.315900570       505.267852034
       553          553.000000         0.901642665       453.008584198     -7716.359276029     -7714.322715511       437.527093100
       554          554.000000         0.903410937       453.897009734     -7716.362657396     -7714.322340274       388.203359923
       555          555.000000         0.911323937       457.872705221     -7716.365873101     -7714.321860251       406.773099736
       556          556.000000         0.906466018       455.431961324     -7716.370130913     -7714.327079392       419.819053084
       557          557.000000         0.905520485       454.956901204     -7716.350846006     -7714.310958279       417.441312941
       558          558.000000         0.905042262       454.716629229     -7716.356672012     -7714.320115674       427.920381451
       559          559.000000         0.901981619       453.178883055     -7716.353704848     -7714.320676276       520.618648668
       560          560.000000         0.894598464       449.469395523     -7716.353933249     -7714.327863398       407.920455314
       561          561.000000         0.879887353       442.078152856     -7716.340459410     -7714.325991489       426.336130489
       562          562.000000         0.865101577       434.649397014     -7716.331261881     -7714.327776794       338.694042846
       563          563.000000         0.855069123       429.608832670     -7716.316787222     -7714.321255630       397.706299771
       564          564.000000         0.847621582       425.866995252     -7716.313089983     -7714.325425583       351.830163321
       565          565.000000         0.842054620       423.070009534     -7716.304655423     -7714.327478268       618.770948081
       566          566.000000         0.824526962       414.263661255     -7716.298512335     -7714.332475898       407.450901570
       567          567.000000         0.817850608       410.909288411     -7716.285374573     -7714.327556874       505.479734734
       568          568.000000         0.810442687       407.187357492     -7716.286531215     -7714.334054712       455.251794564
       569          569.000000         0.801221123       402.554205263     -7716.278771516     -7714.332464961       501.326738962
       570          570.000000         0.792087289       397.965130964     -7716.275484873     -7714.334597233       408.029036502
       571          571.000000         0.791636176       397.738479938     -7716.278262630     -7714.336045402       578.076898286
       572          572.000000         0.796868445       400.367307192     -7716.281789336     -7714.333255064       396.321706814
       573          573.000000         0.801063380       402.474951168     -7716.281043631     -7714.326684533       507.375695022
       574          574.000000         0.804608197       404.255959034     -7716.294947823     -7714.335885870       396.533977492
       575          575.000000         0.814724562       409.338681871     -7716.299168458     -7714.333183145       585.812184457
       576          576.000000         0.830129235       417.078388207     -7716.313832998     -7714.335739628       415.803898467
       577          577.000000         0.842522734       423.305202444     -7716.321826140     -7714.331002871       597.159212370
       578          578.000000         0.843923186       424.008825859     -7716.331430699     -7714.335529078       413.814034347
       579          579.000000         0.842549712       423.318756815     -7716.332042018     -7714.334945200       455.670140778
       580          580.000000         0.849645407       426.883817336     -7716.345357642     -7714.339675293       329.017808457
       581          581.000000         0.861229875       432.704153791     -7716.359252403     -7714.337965519       362.348923920
       582          582.000000         0.874300864       439.271356421     -7716.369998450     -7714.333568850       325.614207578
       583          583.000000         0.879447355       441.857086304     -7716.370116866     -7714.323144643       467.373946919
       584          584.000000         0.880153471       442.211857510     -7716.381495776     -7714.327194445       413.917023010
       585          585.000000         0.885876476       445.087242991     -7716.394687203     -7714.327716081       384.859257621
       586          586.000000         0.896991594       450.671765684     -7716.410623277     -7714.326862645       454.692455982
       587          587.000000         0.901793985       453.084611106     -7716.414514267     -7714.323625059       606.921580037
       588          588.000000         0.892095690       448.211937097     -7716.411051666     -7714.323821487       414.423546313
       589          589.000000         0.891056824       447.689983829     -7716.387346507     -7714.303721431       414.635969308
       590          590.000000         0.894280920       449.309852846     -7716.392377962     -7714.307661369       499.656090301
       591          591.000000         0.893702070       449.019023664     -7716.396528249     -7714.310545678       681.173807601
       592          592.000000         0.884061947       444.175576702     -7716.399994539     -7714.318301092       440.592902177
       593          593.000000         0.874900750       439.572754826     -7716.380133937     -7714.306095561       688.304558591
       594          594.000000         0.873748667       438.993918590     -7716.378715719     -7714.306297110       495.493991304
       595          595.000000         0.882318225       443.299485848     -7716.380084422     -7714.305655328       432.613167733
       596          596.000000         0.870720234       437.472355090     -7716.377149084     -7714.310259105       484.482873507
       597          597.000000         0.856195309       430.174657401     -7716.355349158     -7714.304467411       487.196790718
       598          598.000000         0.844912409       424.505836911     -7716.340317985     -7714.301900145       505.648272364
       599          599.000000         0.841791329       422.937725501     -7716.333335860     -7714.298932189       594.981999035
       600          600.000000         0.834808056       419.429148746     -7716.337860241     -7714.304373484       473.638515864
