#     Step Nr.          Time[fs]        Kin.[a.u.]          Temp[K]            Pot.[a.u.]        Cons Qty[a.u.]        UsedTime[s]
         0            0.000000         0.593420898       298.150000000     -7714.842618770     -7714.249197873         0.000000000
         1            1.000000         0.574611227       288.699535013     -7714.822995700     -7714.247328234      1811.268314303
         2            2.000000         0.557660493       280.183048307     -7714.800640395     -7714.243339723        64.616146222
         3            3.000000         0.589548713       296.204514468     -7714.833797565     -7714.244625819        57.424295940
         4            4.000000         0.659051449       331.124485728     -7714.907078633     -7714.251958929        50.307232078
         5            5.000000         0.678470408       340.881072817     -7714.930815881     -7714.251170625        54.117867139
         6            6.000000         0.673754805       338.511831976     -7714.920357636     -7714.243844091        57.691612662
         7            7.000000         0.718688598       361.087731300     -7714.965677190     -7714.244080068        54.241913731
         8            8.000000         0.794248962       399.051211447     -7715.044721797     -7714.246204487        50.505422398
         9            9.000000         0.834704253       419.376995366     -7715.087355843     -7714.242371309        65.031403831
        10           10.000000         0.847353017       425.732061387     -7715.092605041     -7714.236165081        90.462140821
        11           11.000000         0.858397676       431.281183605     -7715.103031510     -7714.229617074        65.106930834
        12           12.000000         0.911046233       457.733179882     -7715.160051909     -7714.229150874        72.324578730
        13           13.000000         0.970192731       487.449909308     -7715.221926139     -7714.232364968       101.336075813
        14           14.000000         0.967885843       486.290869193     -7715.215513902     -7714.227160834        50.487313441
        15           15.000000         0.945789183       475.188935783     -7715.184351769     -7714.218567248       116.348165493
        16           16.000000         0.970396687       487.552382185     -7715.209427223     -7714.217820391       116.164371339
        17           17.000000         1.019284903       512.115085458     -7715.261372938     -7714.218172199       112.462486538
        18           18.000000         1.042333187       523.695139608     -7715.281997805     -7714.213186789       100.872004579
        19           19.000000         1.043443929       524.253204717     -7715.280146745     -7714.206820634       129.748372653
        20           20.000000         1.068561083       536.872712497     -7715.299042317     -7714.200283974       115.234930038
        21           21.000000         1.132755607       569.125700571     -7715.362532626     -7714.200047215       136.349894505
        22           22.000000         1.181929459       593.831915085     -7715.411717334     -7714.200656663       114.922484922
        23           23.000000         1.162847052       584.244420582     -7715.392422904     -7714.195148654       136.296264110
        24           24.000000         1.128037538       566.755220987     -7715.354941918     -7714.189027826       114.902283126
        25           25.000000         1.134296954       569.900113443     -7715.365539315     -7714.192757060       150.579415442
        26           26.000000         1.149956870       577.768060035     -7715.388673968     -7714.196339036       129.017796163
        27           27.000000         1.144051864       574.801232519     -7715.381940648     -7714.195201358       168.793219104
        28           28.000000         1.126312351       565.888442333     -7715.366302747     -7714.193713971       161.429372528
        29           29.000000         1.142213394       573.877537356     -7715.382391469     -7714.193571472       161.454529914
        30           30.000000         1.188277360       597.021264724     -7715.437228593     -7714.198209304       161.475830927
        31           31.000000         1.217770338       611.839299618     -7715.472207006     -7714.200980189       161.639508726
        32           32.000000         1.194210278       600.002116159     -7715.449996313     -7714.198088217       194.908619387
        33           33.000000         1.156141247       580.875250746     -7715.418508867     -7714.194442470       162.328586261
        34           34.000000         1.157554181       581.585145452     -7715.428580868     -7714.199360565       216.971979182
        35           35.000000         1.170677930       588.178856336     -7715.449982072     -7714.207422376       173.603471948
        36           36.000000         1.157292824       581.453832938     -7715.443427042     -7714.208931134       217.396227166
        37           37.000000         1.141827214       573.683510866     -7715.430018579     -7714.205913384       243.037561207
        38           38.000000         1.160484447       583.057387020     -7715.452497666     -7714.206613784       294.512908272
        39           39.000000         1.206655630       606.254982994     -7715.506684603     -7714.212419224       239.914236766
        40           40.000000         1.233776782       619.881350473     -7715.544590675     -7714.220475260       287.787836752
        41           41.000000         1.223851796       614.894781163     -7715.532877107     -7714.217397735       309.123409629
        42           42.000000         1.202455295       604.144626018     -7715.514291689     -7714.213716002       308.955941151
        43           43.000000         1.205507336       605.678050456     -7715.521637639     -7714.219559877       294.579967565
        44           44.000000         1.198360982       602.087537111     -7715.521423478     -7714.225075793       296.790319002
        45           45.000000         1.166918724       586.290134183     -7715.491319398     -7714.223041429       309.870248830
        46           46.000000         1.133138770       569.318211848     -7715.467854586     -7714.224142680       309.674613286
        47           47.000000         1.135074778       570.290912151     -7715.476420490     -7714.227406330       306.157998553
        48           48.000000         1.152352596       578.971734476     -7715.503626367     -7714.232159322       309.868280329
        49           49.000000         1.153805321       579.701621382     -7715.513908354     -7714.234184989       336.670154281
        50           50.000000         1.138508565       572.016135824     -7715.498988318     -7714.232944797       400.240534065
        51           51.000000         1.126245101       565.854654063     -7715.486044983     -7714.234503340       341.385283625
        52           52.000000         1.116388246       560.902315551     -7715.493723108     -7714.245976775       471.013434552
        53           53.000000         1.105778050       555.571478631     -7715.481498456     -7714.245455501       317.705575996
        54           54.000000         1.075431152       540.324412508     -7715.453274791     -7714.242721991       500.771111494
        55           55.000000         1.062359484       533.756868585     -7715.437410270     -7714.242058246       347.817258048
        56           56.000000         1.073850110       539.530056089     -7715.447902092     -7714.240268543       405.788961406
        57           57.000000         1.094441556       549.875730954     -7715.477046687     -7714.243745939       331.727809306
        58           58.000000         1.111685695       558.539632383     -7715.500109284     -7714.247115476       408.755826497
        59           59.000000         1.119863885       562.648566557     -7715.505482421     -7714.241064214       365.893987053
        60           60.000000         1.130921205       568.204049597     -7715.511931552     -7714.238316830       427.750496051
        61           61.000000         1.133842938       569.672004074     -7715.526987114     -7714.245449696       438.911406244
        62           62.000000         1.126138521       565.801105749     -7715.517276765     -7714.238964660       408.364650873
        63           63.000000         1.107443878       556.408433817     -7715.489686401     -7714.224362640       441.336434456
        64           64.000000         1.100424701       552.881817841     -7715.487583978     -7714.226065751       518.442271503
        65           65.000000         1.108414072       556.895884479     -7715.511635185     -7714.237707135       518.884590135
        66           66.000000         1.121264686       563.352364811     -7715.516746953     -7714.230079248       479.470203036
        67           67.000000         1.125395726       565.427906473     -7715.518119200     -7714.226065840       519.979795481
        68           68.000000         1.128073565       566.773321911     -7715.525214062     -7714.228162062       428.574172025
        69           69.000000         1.128967987       567.222702767     -7715.536122344     -7714.234493019       498.080877296
        70           70.000000         1.123922689       564.687814287     -7715.530900328     -7714.232050186       499.853820241
        71           71.000000         1.112942691       559.171179635     -7715.514148712     -7714.227648861       503.974222446
        72           72.000000         1.098843518       552.087390678     -7715.499595169     -7714.224539223       470.524306759
        73           73.000000         1.104486899       554.922771238     -7715.503916380     -7714.226389638       515.152088564
        74           74.000000         1.112474197       558.935796190     -7715.515695154     -7714.227086848       504.859085906
        75           75.000000         1.111150113       558.270541902     -7715.507571582     -7714.215125384       498.581232245
        76           76.000000         1.108025821       556.700817148     -7715.506369594     -7714.212760048       580.015297119
        77           77.000000         1.114903035       560.156107187     -7715.523482489     -7714.217983686       491.974892613
        78           78.000000         1.125553415       565.507133374     -7715.538914285     -7714.221702330       592.965882695
        79           79.000000         1.115243972       560.327402731     -7715.534607611     -7714.222082437       540.237257953
        80           80.000000         1.097130268       551.226609486     -7715.520303365     -7714.221199443       594.611617793
        81           81.000000         1.093236331       549.270194688     -7715.524445836     -7714.227624606       672.496015073
        82           82.000000         1.107452105       556.412567275     -7715.538785194     -7714.228580181       586.751327237
        83           83.000000         1.114844616       560.126756045     -7715.547525551     -7714.226276326       506.249217407
        84           84.000000         1.110435252       557.911377445     -7715.546845221     -7714.229045309       557.812609649
        85           85.000000         1.110321442       557.854196118     -7715.538433958     -7714.222510959       678.862875072
        86           86.000000         1.123207406       564.328437567     -7715.549669026     -7714.221335164       524.275621605
        87           87.000000         1.126513208       565.989358309     -7715.565553399     -7714.228973483       555.588215211
        88           88.000000         1.110606612       557.997472971     -7715.565355651     -7714.239190446       505.378928511
        89           89.000000         1.094151545       549.730022306     -7715.546517744     -7714.235858355       523.252178098
        90           90.000000         1.097380461       551.352312713     -7715.549322150     -7714.236528040       491.580510597
        91           91.000000         1.109580834       557.482095589     -7715.571631419     -7714.236573592       521.985206365
        92           92.000000         1.131249768       568.369128329     -7715.596114157     -7714.244058383       522.440700519
        93           93.000000         1.127737365       566.604406276     -7715.592350159     -7714.239789213       624.227350796
        94           94.000000         1.125773307       565.617612894     -7715.586412475     -7714.229759398       496.487400373
        95           95.000000         1.140962643       573.249127626     -7715.604968404     -7714.231887319       500.486019398
        96           96.000000         1.139707130       572.618325620     -7715.621479869     -7714.243914670       517.221957023
        97           97.000000         1.116568776       560.993018676     -7715.607604329     -7714.251980960       582.577898757
        98           98.000000         1.086515497       545.893474116     -7715.574620482     -7714.244958265       586.118539020
        99           99.000000         1.076646751       540.935161251     -7715.576370942     -7714.248933153       482.179662250
       100          100.000000         1.088782455       547.032452669     -7715.595616721     -7714.252611906       519.965121670
       101          101.000000         1.089837024       547.562295427     -7715.601780069     -7714.257390756       521.823750319
       102          102.000000         1.073080902       539.143586545     -7715.582552931     -7714.254661428       562.205145353
       103          103.000000         1.074311605       539.761923133     -7715.580175114     -7714.254624460       509.656272627
       104          104.000000         1.090374563       547.832368862     -7715.595484701     -7714.251839938       491.818441700
       105          105.000000         1.091052188       548.172824957     -7715.600182398     -7714.256158850       469.587553168
       106          106.000000         1.056628760       530.877604869     -7715.567481400     -7714.255261932       602.282060071
       107          107.000000         1.031981188       518.494027486     -7715.531076675     -7714.245730743       472.646864261
       108          108.000000         1.034321879       519.670051188     -7715.527166227     -7714.235352928       500.629792109
       109          109.000000         1.058333710       531.734215646     -7715.559234708     -7714.244009656       468.687330395
       110          110.000000         1.060928291       533.037800288     -7715.560057889     -7714.236716458       414.446973959
       111          111.000000         1.048236701       526.661217468     -7715.554687337     -7714.235868145       529.861829040
       112          112.000000         1.067209730       536.193757729     -7715.577424369     -7714.242873802       490.934022573
       113          113.000000         1.095646361       550.481056099     -7715.607088945     -7714.238331602       519.075750091
       114          114.000000         1.098958464       552.145142219     -7715.615493450     -7714.238473741       597.660221986
       115          115.000000         1.064388363       534.776230113     -7715.596584726     -7714.250794433       667.991917708
       116          116.000000         1.034544281       519.781791779     -7715.560026306     -7714.242349440       490.741367749
       117          117.000000         1.036153972       520.590541917     -7715.565778078     -7714.244692620       572.947069348
       118          118.000000         1.047919727       526.501961362     -7715.586394621     -7714.251245152       470.455039971
       119          119.000000         1.037741467       521.388140446     -7715.569902948     -7714.237986246       489.800869919
       120          120.000000         1.025427401       515.201235247     -7715.546799029     -7714.225704259       509.021258967
       121          121.000000         1.040094049       522.570138579     -7715.574080568     -7714.237077053       558.325689264
       122          122.000000         1.072570280       538.887036871     -7715.620272253     -7714.247539361       469.045118813
       123          123.000000         1.079883901       542.561588946     -7715.609937865     -7714.228758468       518.233665754
       124          124.000000         1.051108454       528.104060260     -7715.585493478     -7714.231254380       479.037408504
       125          125.000000         1.032121510       518.564528681     -7715.568873831     -7714.231589275       612.515443773
       126          126.000000         1.039590769       522.317277734     -7715.586029000     -7714.236211089       532.303796222
       127          127.000000         1.044289152       524.677866998     -7715.595812370     -7714.233428766       562.838731643
       128          128.000000         1.033149373       519.080953648     -7715.584334784     -7714.230675656       557.142188808
       129          129.000000         1.018320464       511.630526580     -7715.569179821     -7714.229299473       490.362079740
       130          130.000000         1.024854043       514.913165676     -7715.580238653     -7714.229455548       510.816534221
       131          131.000000         1.043650305       524.356893454     -7715.616090619     -7714.239420055       571.985663132
       132          132.000000         1.043918765       524.491774842     -7715.623052505     -7714.243429584       488.431667121
       133          133.000000         1.020249609       512.599779014     -7715.591139075     -7714.233465031       570.930726598
       134          134.000000         1.011564535       508.236173077     -7715.583214402     -7714.233802777       575.404929698
       135          135.000000         1.025185530       515.079713060     -7715.608663163     -7714.243903070       595.786738619
       136          136.000000         1.029781600       517.388897502     -7715.619444392     -7714.245814403       561.069383942
       137          137.000000         1.020107401       512.528329920     -7715.606442324     -7714.241061907       488.931699323
       138          138.000000         1.008910035       506.902483895     -7715.598047684     -7714.237838914       578.337121722
       139          139.000000         1.028025171       516.506422248     -7715.620065239     -7714.239903251       518.150677881
       140          140.000000         1.055195698       530.157597268     -7715.654013566     -7714.242959296       592.060182574
       141          141.000000         1.060553610       532.849550837     -7715.661552895     -7714.243660689       559.544125247
       142          142.000000         1.043118908       524.089906166     -7715.655366879     -7714.251914095       474.299536626
       143          143.000000         1.040373180       522.710381446     -7715.655285953     -7714.250945195       487.477165812
       144          144.000000         1.057347325       531.238630318     -7715.678971990     -7714.255092568       591.720311160
       145          145.000000         1.055377072       530.248724526     -7715.689588950     -7714.257970607       533.247462728
       146          146.000000         1.039364823       522.203756485     -7715.678226232     -7714.259067502       596.643410207
       147          147.000000         1.025601278       515.288595737     -7715.651122450     -7714.242253415       446.941114124
       148          148.000000         1.038014790       521.525465253     -7715.668155329     -7714.243768937       472.407548421
       149          149.000000         1.066069991       535.621123606     -7715.705498178     -7714.254053444       568.509999168
       150          150.000000         1.070441933       537.817700028     -7715.716707779     -7714.260760383       504.563846780
       151          151.000000         1.050589505       527.843326949     -7715.698354719     -7714.256846776       472.393839286
       152          152.000000         1.049306278       527.198600632     -7715.681328232     -7714.238546013       458.697181083
       153          153.000000         1.066166120       535.669421114     -7715.723887178     -7714.262053698       568.067943841
       154          154.000000         1.076664019       540.943836712     -7715.741603086     -7714.271080870       416.202037015
       155          155.000000         1.068845592       537.015657000     -7715.732882807     -7714.271746716       518.473519596
       156          156.000000         1.055364016       530.242164855     -7715.717423125     -7714.264971548       479.761515386
       157          157.000000         1.067761581       536.471022134     -7715.735000077     -7714.271050122       646.171279601
       158          158.000000         1.084066291       544.662929772     -7715.761820959     -7714.277273310       557.286734307
       159          159.000000         1.087395546       546.335633426     -7715.764767432     -7714.277872154       478.323011051
       160          160.000000         1.069339509       537.263813990     -7715.748391873     -7714.276779041       444.155514698
       161          161.000000         1.060812905       532.979827442     -7715.747770826     -7714.282090077       553.254789580
       162          162.000000         1.066264627       535.718913706     -7715.757972323     -7714.283622585       568.125253811
       163          163.000000         1.069070794       537.128804565     -7715.753105080     -7714.276476623       525.164944428
       164          164.000000         1.049670672       527.381681529     -7715.738908292     -7714.273908720       553.994267235
       165          165.000000         1.036476859       520.752768696     -7715.727622557     -7714.273993611       559.940632159
       166          166.000000         1.040283855       522.665502126     -7715.739231090     -7714.281231224       514.392304822
       167          167.000000         1.051566188       528.334037945     -7715.746057597     -7714.276094488       467.769806762
       168          168.000000         1.045556646       525.314688652     -7715.739043563     -7714.270120123       408.054396472
       169          169.000000         1.029538750       517.266883668     -7715.734707219     -7714.280978924       556.129838932
       170          170.000000         1.014291082       509.606061029     -7715.724157656     -7714.280519249       457.817999474
       171          171.000000         1.015427827       510.177190904     -7715.726924964     -7714.280735517       477.684436322
       172          172.000000         1.009215928       507.056172544     -7715.726465695     -7714.280829041       546.831921746
       173          173.000000         0.998319246       501.581397403     -7715.720998995     -7714.284938774       396.569545591
       174          174.000000         0.984422737       494.599432416     -7715.713309080     -7714.283770905       439.121581628
       175          175.000000         0.993304584       499.061901950     -7715.722442079     -7714.286053490       543.865598181
       176          176.000000         1.006657057       505.770529547     -7715.736468874     -7714.284761957       522.090266374
       177          177.000000         1.015509080       510.218014431     -7715.740464978     -7714.279368744       393.550722546
       178          178.000000         1.012633881       508.773440451     -7715.740596987     -7714.279319424       429.956254413
       179          179.000000         1.017393907       511.165000502     -7715.743636995     -7714.277734056       468.759058561
       180          180.000000         1.033752058       519.383758453     -7715.758922366     -7714.277228273       407.794967760
       181          181.000000         1.042617406       523.837938483     -7715.770089125     -7714.276117168       575.844256081
       182          182.000000         1.045554060       525.313389326     -7715.776061445     -7714.280646812       479.907206164
       183          183.000000         1.041838416       523.446553507     -7715.755811263     -7714.262256422       430.271738164
       184          184.000000         1.042537257       523.797669654     -7715.766264234     -7714.271766089       507.646694960
       185          185.000000         1.040073709       522.559919050     -7715.769019997     -7714.273125839       396.297995832
       186          186.000000         1.035757364       520.391276051     -7715.754440892     -7714.263501124       478.772471825
       187          187.000000         1.023915967       514.441851845     -7715.736319038     -7714.257573038       468.671311113
       188          188.000000         1.012446447       508.679268523     -7715.735840004     -7714.266534557       388.921775548
       189          189.000000         1.006068675       505.474911210     -7715.728030423     -7714.257020524       389.796142818
       190          190.000000         1.013932455       509.425877480     -7715.734080984     -7714.256733621       411.899863711
       191          191.000000         1.013239752       509.077845471     -7715.737078400     -7714.256784837       430.135148651
       192          192.000000         1.013123347       509.019360803     -7715.740007908     -7714.259257227       556.697192590
       193          193.000000         1.017333549       511.134674815     -7715.733800865     -7714.252175647       510.885326359
       194          194.000000         1.014498852       509.710449854     -7715.737942043     -7714.255833997       556.263788559
       195          195.000000         1.013926183       509.422726062     -7715.741676682     -7714.261287617       518.396512053
       196          196.000000         1.003217233       504.042273036     -7715.739643714     -7714.262863593       482.646358227
       197          197.000000         0.997389996       501.114518348     -7715.727902640     -7714.253732502       506.949129215
       198          198.000000         0.992751973       498.784255661     -7715.734714429     -7714.258035650       464.693791269
       199          199.000000         0.994725024       499.775567802     -7715.745726538     -7714.262044025       572.331533427
       200          200.000000         1.001303890       503.080959857     -7715.754910398     -7714.265020356       557.793680032
