#     Step Nr.          Time[fs]        Kin.[a.u.]          Temp[K]            Pot.[a.u.]        Cons Qty[a.u.]        UsedTime[s]
      1801         1801.000000         0.614476779       308.729018897     -7717.025982461     -7714.378930237      1614.943621924
      1802         1802.000000         0.608046273       305.498166798     -7717.020400885     -7714.381069246       119.015326792
      1803         1803.000000         0.601387162       302.152457163     -7717.014094696     -7714.384486979        70.198530276
      1804         1804.000000         0.599306325       301.106990834     -7717.015826799     -7714.389603474        51.955277187
      1805         1805.000000         0.593574080       298.226962823     -7717.016764658     -7714.394148813        66.711154117
      1806         1806.000000         0.584353458       293.594284053     -7717.010611599     -7714.396620578        44.496478892
      1807         1807.000000         0.574314634       288.550519223     -7717.002052011     -7714.397371267        78.115935579
      1808         1808.000000         0.567794697       285.274734100     -7717.000158508     -7714.397947315        96.674239140
      1809         1809.000000         0.572109484       287.442594989     -7717.008820370     -7714.399412200        93.013598721
      1810         1810.000000         0.580989603       291.904196410     -7717.019061250     -7714.400987770       115.786767335
      1811         1811.000000         0.585132665       293.985777425     -7717.020378551     -7714.401232412       100.437306007
      1812         1812.000000         0.584524866       293.680403956     -7717.018869638     -7714.399705960        74.397142143
      1813         1813.000000         0.589936402       296.399299172     -7717.026064700     -7714.399414769       142.183141801
      1814         1814.000000         0.595985867       299.438707111     -7717.034209341     -7714.399517972       116.611840329
      1815         1815.000000         0.597504913       300.201914976     -7717.032805499     -7714.398614948       119.616371226
      1816         1816.000000         0.590486669       296.675767514     -7717.026468929     -7714.397069499       119.604216938
      1817         1817.000000         0.593761215       298.320984501     -7717.025081667     -7714.394566309       119.756035964
      1818         1818.000000         0.601285713       302.101486694     -7717.035375798     -7714.393306851       142.129170168
      1819         1819.000000         0.620196349       311.602679099     -7717.050290264     -7714.394112430       134.598664161
      1820         1820.000000         0.624369473       313.699364341     -7717.052122649     -7714.392154689       123.526869142
      1821         1821.000000         0.620616585       311.813816540     -7717.048571529     -7714.392085193       172.030246082
      1822         1822.000000         0.622687180       312.854136779     -7717.050783558     -7714.392440477       142.064754908
      1823         1823.000000         0.627017120       315.029610890     -7717.054806458     -7714.391406858       190.627235966
      1824         1824.000000         0.624509212       313.769572907     -7717.048482667     -7714.388897460       168.461122594
      1825         1825.000000         0.609425628       306.191190289     -7717.032550276     -7714.387032078       190.705871539
      1826         1826.000000         0.591812439       297.341868877     -7717.016170627     -7714.385514151       156.850767018
      1827         1827.000000         0.585572653       294.206838932     -7717.008109466     -7714.383868052       209.626626213
      1828         1828.000000         0.590115329       296.489196917     -7717.010035189     -7714.383599117       190.619439901
      1829         1829.000000         0.589544735       296.202515904     -7717.009328399     -7714.381180800       168.013430183
      1830         1830.000000         0.593589584       298.234752368     -7717.002714278     -7714.377833957       190.567658932
      1831         1831.000000         0.590505606       296.685281957     -7716.999433546     -7714.376991221       179.189593311
      1832         1832.000000         0.595403242       299.145980995     -7717.007055176     -7714.380224571       213.020847077
      1833         1833.000000         0.601226584       302.071778697     -7717.015634781     -7714.382045414       224.357453681
      1834         1834.000000         0.601382287       302.150007742     -7717.017148728     -7714.381479691       227.933353296
      1835         1835.000000         0.597501057       300.199977364     -7717.011927112     -7714.381112281       224.190165311
      1836         1836.000000         0.591903062       297.387400135     -7717.005537026     -7714.381031392       224.076021142
      1837         1837.000000         0.596400098       299.646827234     -7717.002689958     -7714.377440027       231.524914785
      1838         1838.000000         0.605059598       303.997583784     -7717.004462817     -7714.373194920       246.351201733
      1839         1839.000000         0.613960320       308.469536952     -7717.014461101     -7714.379484025       246.100720446
      1840         1840.000000         0.614312610       308.646536181     -7717.016293867     -7714.381681009       223.709262570
      1841         1841.000000         0.617334945       310.165035465     -7717.011285592     -7714.375550350       328.397125801
      1842         1842.000000         0.624062793       313.545280180     -7717.013224924     -7714.372546595       264.415882290
      1843         1843.000000         0.629619105       316.336915230     -7717.027810446     -7714.382654804       313.438935439
      1844         1844.000000         0.625968444       314.502728580     -7717.023076987     -7714.380102802       306.583939016
      1845         1845.000000         0.617065360       310.029589228     -7717.008461520     -7714.375034000       331.843325892
      1846         1846.000000         0.613080695       308.027590282     -7716.999392810     -7714.374970051       302.300635649
      1847         1847.000000         0.611310341       307.138118875     -7716.996591685     -7714.376525974       329.121467622
      1848         1848.000000         0.609173258       306.064393250     -7716.989814491     -7714.374792079       318.463493505
      1849         1849.000000         0.602277575       302.599823841     -7716.986298397     -7714.378457224       342.993414954
      1850         1850.000000         0.598147555       300.524795110     -7716.979381033     -7714.374715292       336.442080873
      1851         1851.000000         0.602066745       302.493897256     -7716.975721900     -7714.368859042       344.639137308
      1852         1852.000000         0.601006852       301.961379697     -7716.987487512     -7714.376675456       359.294829593
      1853         1853.000000         0.609035983       305.995422510     -7716.982373951     -7714.366565842       400.015506884
      1854         1854.000000         0.611395108       307.180707815     -7716.992034159     -7714.372674617       396.075191261
      1855         1855.000000         0.609567737       306.262589469     -7716.995052150     -7714.374925329       444.411552298
      1856         1856.000000         0.611834831       307.401635941     -7716.999041409     -7714.375909243       305.331046078
      1857         1857.000000         0.613523314       308.249973677     -7717.006591226     -7714.379199366       409.406791953
      1858         1858.000000         0.619060744       311.032121804     -7717.006488211     -7714.379529447       260.378840724
      1859         1859.000000         0.615125100       309.054752263     -7716.992010897     -7714.367598351       424.185686975
      1860         1860.000000         0.613461746       308.219040251     -7717.002144482     -7714.377267052       315.879579115
      1861         1861.000000         0.608486672       305.719434708     -7717.012286273     -7714.387195350       342.561336301
      1862         1862.000000         0.604219535       303.575514842     -7717.012545375     -7714.390042711       316.658847735
      1863         1863.000000         0.601855042       302.387532178     -7717.010435007     -7714.390521435       451.596890084
      1864         1864.000000         0.604107841       303.519396876     -7717.009861370     -7714.391254632       308.549795599
      1865         1865.000000         0.603003959       302.964777610     -7717.013986369     -7714.393082964       319.744102338
      1866         1866.000000         0.607514894       305.231188124     -7717.020533142     -7714.394183171       308.763200336
      1867         1867.000000         0.610665523       306.814145562     -7717.021911291     -7714.393041665       222.948167960
      1868         1868.000000         0.608912330       305.933296217     -7717.019441350     -7714.389537522       267.273645218
      1869         1869.000000         0.614273836       308.627055308     -7717.028039257     -7714.393431018       308.157356666
      1870         1870.000000         0.622315891       312.667591542     -7717.037694562     -7714.399059698       234.021184758
      1871         1871.000000         0.622151993       312.585245310     -7717.033572357     -7714.395631634       301.121330664
      1872         1872.000000         0.623331211       313.177714459     -7717.031977733     -7714.393038013       263.557610830
      1873         1873.000000         0.625786179       314.411153866     -7717.044567245     -7714.401667000       304.489811218
      1874         1874.000000         0.628462212       315.755662038     -7717.045841294     -7714.402101298       248.716054827
      1875         1875.000000         0.627921861       315.484175959     -7717.033592709     -7714.389652672       423.264469968
      1876         1876.000000         0.626837667       314.939448979     -7717.036168673     -7714.391873945       304.686612028
      1877         1877.000000         0.619383894       311.194480337     -7717.038951100     -7714.397442326       442.658882761
      1878         1878.000000         0.620742917       311.877288961     -7717.039972008     -7714.401294451       304.540110526
      1879         1879.000000         0.618508874       310.754848054     -7717.019439352     -7714.382780154       413.102514103
      1880         1880.000000         0.612946279       307.960056371     -7717.021126335     -7714.387805194       319.373218857
      1881         1881.000000         0.613266187       308.120786642     -7717.035930978     -7714.405790874       386.777927024
      1882         1882.000000         0.603602327       303.265413162     -7717.032634568     -7714.405901144       305.918659759
      1883         1883.000000         0.593209364       298.043720294     -7717.018192465     -7714.400264343       374.788983474
      1884         1884.000000         0.586411226       294.628159713     -7717.004309650     -7714.397223388       304.688537160
      1885         1885.000000         0.581653029       292.237518376     -7717.004144062     -7714.401522080       408.227526083
      1886         1886.000000         0.581658035       292.240033599     -7717.009033427     -7714.405265120       300.840459130
      1887         1887.000000         0.584031010       293.432277721     -7717.011276449     -7714.405047452       408.569398854
      1888         1888.000000         0.581801753       292.312241506     -7717.015595430     -7714.407694136       300.929187844
      1889         1889.000000         0.581941217       292.382311486     -7717.010291354     -7714.398642878       401.280907411
      1890         1890.000000         0.593871709       298.376499167     -7717.021165894     -7714.400431808       244.934211069
      1891         1891.000000         0.603682603       303.305745970     -7717.039281812     -7714.409366899       341.587892585
      1892         1892.000000         0.602686304       302.805179909     -7717.040636961     -7714.408844588       304.445432290
      1893         1893.000000         0.603926540       303.428306140     -7717.030732779     -7714.400027759       393.559885968
      1894         1894.000000         0.611935350       307.452139564     -7717.036452535     -7714.400255871       304.801428845
      1895         1895.000000         0.624885135       313.958446213     -7717.050431345     -7714.403049509       386.216469710
      1896         1896.000000         0.632501647       317.785178826     -7717.061487433     -7714.407117813       259.676700868
      1897         1897.000000         0.626779616       314.910282603     -7717.055167393     -7714.405952405       397.435933345
      1898         1898.000000         0.612832841       307.903061990     -7717.038134405     -7714.399164287       271.230327266
      1899         1899.000000         0.613379087       308.177510381     -7717.039694860     -7714.399987368       359.872520439
      1900         1900.000000         0.619552668       311.279277034     -7717.053853023     -7714.405316743       294.947761436
      1901         1901.000000         0.614877438       308.930320541     -7717.040402000     -7714.391405377       409.667992929
      1902         1902.000000         0.602267827       302.594925867     -7717.022997397     -7714.384923874       368.115368394
      1903         1903.000000         0.589037016       295.947424454     -7717.013937485     -7714.386131052       551.585827870
      1904         1904.000000         0.588906101       295.881649673     -7717.023943940     -7714.395887752       353.047365807
      1905         1905.000000         0.596919501       299.907788598     -7717.028274758     -7714.394574735       416.881857198
      1906         1906.000000         0.595639365       299.264615227     -7717.029410123     -7714.396294083       331.018658130
      1907         1907.000000         0.588501694       295.678464854     -7717.000040326     -7714.373660554       418.165638510
      1908         1908.000000         0.589603667       296.232124597     -7717.005651682     -7714.379083358       346.522736218
      1909         1909.000000         0.599555646       301.232256305     -7717.025414138     -7714.390620921       413.641817992
      1910         1910.000000         0.603431340       303.179505227     -7717.032644804     -7714.393413275       302.529533036
      1911         1911.000000         0.603827803       303.378698289     -7717.026694078     -7714.385650552       592.872296895
      1912         1912.000000         0.608721313       305.837324102     -7717.029665916     -7714.381758607       342.461267626
      1913         1913.000000         0.613668155       308.322745447     -7717.038965222     -7714.383676616       409.489659722
      1914         1914.000000         0.612443488       307.707441264     -7717.038292907     -7714.382477277       305.933648162
      1915         1915.000000         0.604969712       303.952423065     -7717.031432057     -7714.381129016       342.792159976
      1916         1916.000000         0.602298429       302.610301212     -7717.022196570     -7714.378823307       338.941363502
      1917         1917.000000         0.599341521       301.124674291     -7717.001944122     -7714.361096955       413.544586022
      1918         1918.000000         0.602800939       302.862775100     -7717.012993571     -7714.370373102       408.205384422
      1919         1919.000000         0.599977686       301.444299965     -7717.012869210     -7714.372685587       412.568444607
      1920         1920.000000         0.592054356       297.463414191     -7717.008257688     -7714.376349537       354.058313533
      1921         1921.000000         0.587004429       294.926200231     -7716.992171636     -7714.364277212       499.718399037
      1922         1922.000000         0.602833238       302.879003311     -7717.000196490     -7714.362096658       394.706177314
      1923         1923.000000         0.617720426       310.358711409     -7717.029166216     -7714.374467699       364.229202549
      1924         1924.000000         0.623370910       313.197660508     -7717.043521456     -7714.385921568       302.409419030
      1925         1925.000000         0.610218740       306.589670476     -7717.026262061     -7714.382793656       395.450830722
      1926         1926.000000         0.599740905       301.325335124     -7717.006677918     -7714.375058426       354.003858892
      1927         1927.000000         0.601099391       302.007873417     -7716.999035005     -7714.366476302       357.941236839
      1928         1928.000000         0.599290718       301.099149565     -7717.012773023     -7714.378970206       294.321971019
      1929         1929.000000         0.593244427       298.061336458     -7717.000555484     -7714.373872803       376.938259132
      1930         1930.000000         0.583125371       292.977261399     -7716.993775503     -7714.375075794       409.761799738
      1931         1931.000000         0.585605558       294.223371289     -7717.000778994     -7714.378312283       387.782518283
      1932         1932.000000         0.599290449       301.099014338     -7717.026598747     -7714.386948317       342.987910733
      1933         1933.000000         0.609004120       305.979413559     -7717.038501872     -7714.383882173       421.924070043
      1934         1934.000000         0.610077403       306.518659161     -7717.030967971     -7714.376303184       433.519897616
      1935         1935.000000         0.604065381       303.498063569     -7717.021440587     -7714.374027608       417.788203881
      1936         1936.000000         0.600105316       301.508424419     -7717.029368780     -7714.382054127       410.210919197
      1937         1937.000000         0.602806868       302.865754097     -7717.033402294     -7714.380745022       458.480768564
      1938         1938.000000         0.601761451       302.340509571     -7717.030768612     -7714.377824391       507.345814190
      1939         1939.000000         0.590811933       296.839188509     -7717.029282330     -7714.385086824       456.835998890
      1940         1940.000000         0.581245730       292.032880838     -7717.015176015     -7714.382415581       487.910504081
      1941         1941.000000         0.586901239       294.874354889     -7716.997091097     -7714.365772296       398.936863867
      1942         1942.000000         0.595423408       299.156112963     -7717.013333397     -7714.373151507       536.321493922
      1943         1943.000000         0.602997718       302.961642120     -7717.023511942     -7714.377232152       686.204207328
      1944         1944.000000         0.597152331       300.024768845     -7717.027860954     -7714.382962963       432.725336185
      1945         1945.000000         0.591208962       297.038666393     -7717.023924124     -7714.383789573       521.886831887
      1946         1946.000000         0.585638090       294.239716419     -7717.027216046     -7714.389899593       492.312686143
      1947         1947.000000         0.590188727       296.526073749     -7717.033618822     -7714.393405802       502.918401989
      1948         1948.000000         0.592710399       297.793026905     -7717.035065917     -7714.390053968       397.666006701
      1949         1949.000000         0.592314669       297.594202161     -7717.038696561     -7714.394613984       475.061984571
      1950         1950.000000         0.591546780       297.208395021     -7717.038151444     -7714.396181109       324.036306042
      1951         1951.000000         0.602142327       302.531871573     -7717.037961079     -7714.388563405       423.816474153
      1952         1952.000000         0.614930399       308.956929773     -7717.059003528     -7714.395857808       511.531776819
      1953         1953.000000         0.625257545       314.145554864     -7717.065706239     -7714.393670949       555.291736736
      1954         1954.000000         0.619235683       311.120015737     -7717.060475950     -7714.389712876       491.315522944
      1955         1955.000000         0.611369496       307.167839653     -7717.050434048     -7714.389905824       510.905538317
      1956         1956.000000         0.602400790       302.661730068     -7717.044564749     -7714.394615257       491.961740986
      1957         1957.000000         0.598929730       300.917779726     -7717.041896610     -7714.398179822       440.330675981
      1958         1958.000000         0.593745587       298.313132370     -7717.035952244     -7714.399878332       489.336868150
      1959         1959.000000         0.578383391       290.594768149     -7717.023645762     -7714.399551369       440.588235809
      1960         1960.000000         0.564372318       283.555242455     -7717.005449599     -7714.392215140       477.508587737
      1961         1961.000000         0.564797234       283.768731459     -7717.005453185     -7714.394387697       492.049002056
      1962         1962.000000         0.570815637       286.792532731     -7717.011537888     -7714.392474128       512.057065989
      1963         1963.000000         0.580420404       291.618215726     -7717.024765264     -7714.398787593       417.328073260
      1964         1964.000000         0.582000233       292.411963097     -7717.008993998     -7714.385198757       507.767780541
      1965         1965.000000         0.577949697       290.376868738     -7717.015087253     -7714.393301285       417.370909927
      1966         1966.000000         0.585121953       293.980395561     -7717.025061026     -7714.397480022       489.837167148
      1967         1967.000000         0.589749006       296.305146772     -7717.032066320     -7714.397290923       305.488898209
      1968         1968.000000         0.590284976       296.574431894     -7717.033840612     -7714.397907345       383.681374659
      1969         1969.000000         0.582674332       292.750647553     -7717.029311967     -7714.397223147       261.271861840
      1970         1970.000000         0.581192368       292.006070799     -7717.022768705     -7714.391226650       411.768398506
      1971         1971.000000         0.588122703       295.488049831     -7717.030645512     -7714.390163225       328.634862877
      1972         1972.000000         0.596743658       299.819440636     -7717.038869009     -7714.384810331       413.926234986
      1973         1973.000000         0.608295885       305.623577978     -7717.050897668     -7714.386883402       327.678376910
      1974         1974.000000         0.610518881       306.740468936     -7717.050974971     -7714.380826137       540.973642130
      1975         1975.000000         0.615245185       309.115086133     -7717.062271943     -7714.387088023       396.059419688
      1976         1976.000000         0.613541911       308.259317212     -7717.061792540     -7714.385694034       433.141731505
      1977         1977.000000         0.605943284       304.441570498     -7717.048918713     -7714.380921010       331.899804228
      1978         1978.000000         0.592223363       297.548327757     -7717.037051918     -7714.384391421       420.994130650
      1979         1979.000000         0.581558901       292.190226074     -7717.024664290     -7714.383472444       318.217117836
      1980         1980.000000         0.574376403       288.581553725     -7717.018880821     -7714.379060261       418.349588962
      1981         1981.000000         0.574320612       288.553522921     -7717.026044130     -7714.383983495       303.123476511
      1982         1982.000000         0.576631362       289.714503451     -7717.025046414     -7714.382105361       448.354333847
      1983         1983.000000         0.579026933       290.918100166     -7717.028900636     -7714.383881858       365.595951193
      1984         1984.000000         0.585634846       294.238086243     -7717.028959692     -7714.377172363       595.135100997
      1985         1985.000000         0.592906467       297.891536701     -7717.042887122     -7714.380486941       321.206862355
      1986         1986.000000         0.594500941       298.692641845     -7717.023991625     -7714.356878366       389.898420303
      1987         1987.000000         0.590076649       296.469763057     -7717.023952630     -7714.364139453       399.834103032
      1988         1988.000000         0.580381974       291.598907629     -7717.031912872     -7714.379674384       354.542485847
      1989         1989.000000         0.584194357       293.514347397     -7717.037072918     -7714.382412881       290.923427599
      1990         1990.000000         0.588992905       295.925261959     -7717.045144836     -7714.383838246       396.008557115
      1991         1991.000000         0.593525429       298.202519374     -7717.052169575     -7714.384991696       295.337289283
      1992         1992.000000         0.599981286       301.446108782     -7717.047266512     -7714.374959455       512.339829609
      1993         1993.000000         0.607384678       305.165764436     -7717.054738863     -7714.378522244       309.763414198
      1994         1994.000000         0.613140769       308.057773250     -7717.052341574     -7714.369544749       504.679787041
      1995         1995.000000         0.619420883       311.213064877     -7717.070910984     -7714.380556491       306.153142973
      1996         1996.000000         0.609481014       306.219017648     -7717.071264304     -7714.386682242       324.677468890
      1997         1997.000000         0.593373670       298.126271688     -7717.053446243     -7714.385864926       302.684633670
      1998         1998.000000         0.581596161       292.208946543     -7717.043078322     -7714.386946956       414.121707527
      1999         1999.000000         0.578070702       290.437665005     -7717.042676877     -7714.389411729       318.234595483
      2000         2000.000000         0.574178807       288.482276406     -7717.044062546     -7714.393961844       489.443586199
