#     Step Nr.          Time[fs]        Kin.[a.u.]          Temp[K]            Pot.[a.u.]        Cons Qty[a.u.]        UsedTime[s]
      1601         1601.000000         0.637403693       320.248093671     -7716.977511071     -7714.368713258      1441.543420895
      1602         1602.000000         0.626836802       314.939014338     -7716.972370549     -7714.370910168        98.408719650
      1603         1603.000000         0.626791891       314.916449816     -7716.977832379     -7714.375126405        58.492768962
      1604         1604.000000         0.630909491       316.985238432     -7716.984908293     -7714.379388818        51.000870807
      1605         1605.000000         0.632646504       317.857958800     -7716.985070206     -7714.381988255        51.238162081
      1606         1606.000000         0.624099895       313.563921344     -7716.982129288     -7714.383873697        65.979675266
      1607         1607.000000         0.620499298       311.754888421     -7716.980681555     -7714.384543391        43.835352539
      1608         1608.000000         0.621994846       312.506290302     -7716.982577012     -7714.384409691        98.855818914
      1609         1609.000000         0.628500566       315.774932094     -7716.985289346     -7714.383576952        65.955903741
      1610         1610.000000         0.632493782       317.781227184     -7716.982451504     -7714.381666418        73.276229300
      1611         1611.000000         0.626499199       314.769393636     -7716.978960897     -7714.380364363       114.073761312
      1612         1612.000000         0.631976856       317.521510079     -7716.983289405     -7714.380630412        65.821019668
      1613         1613.000000         0.636963846       320.027102787     -7716.988046231     -7714.380699631        87.940971507
      1614         1614.000000         0.633995765       318.535862399     -7716.986521223     -7714.379225501        62.268732725
      1615         1615.000000         0.634804963       318.942424241     -7716.986490588     -7714.377542978        91.820784181
      1616         1616.000000         0.638275967       320.686346554     -7716.991843125     -7714.375891609        76.861715051
      1617         1617.000000         0.644484801       323.805825238     -7716.995856052     -7714.374052479       117.687622215
      1618         1618.000000         0.639484084       321.293335634     -7716.992187996     -7714.371762466        95.295508279
      1619         1619.000000         0.630778229       316.919288886     -7716.982669187     -7714.368495889        73.206595141
      1620         1620.000000         0.626959894       315.000858939     -7716.974812717     -7714.365287651       117.740503793
      1621         1621.000000         0.628761250       315.905906541     -7716.972180366     -7714.363869903       117.677752508
      1622         1622.000000         0.625888958       314.462792657     -7716.969263433     -7714.363215097        80.527836973
      1623         1623.000000         0.622756524       312.888977227     -7716.963043840     -7714.362504985       117.661294407
      1624         1624.000000         0.622035320       312.526625557     -7716.960768069     -7714.361977586       117.513646523
      1625         1625.000000         0.628149567       315.598581222     -7716.970915467     -7714.363328187       117.604128750
      1626         1626.000000         0.639785251       321.444649603     -7716.984227300     -7714.364701407        80.528147058
      1627         1627.000000         0.640611741       321.859899706     -7716.987915413     -7714.364572881       117.516201764
      1628         1628.000000         0.637554740       320.323983357     -7716.984084205     -7714.364121310       113.900001626
      1629         1629.000000         0.640906818       322.008154214     -7716.982735221     -7714.364040366       117.579244099
      1630         1630.000000         0.643007073       323.063376322     -7716.985160866     -7714.364506456       132.064534470
      1631         1631.000000         0.642295838       322.706033482     -7716.985383059     -7714.364274641       117.368501228
      1632         1632.000000         0.640139176       321.622470720     -7716.987502171     -7714.366653589       146.598914795
      1633         1633.000000         0.639016096       321.058206403     -7716.990075112     -7714.368813296        76.651200230
      1634         1634.000000         0.644588954       323.858154520     -7716.996091124     -7714.370925661       161.347816578
      1635         1635.000000         0.651655802       327.408721662     -7717.005282900     -7714.372851997       132.366900682
      1636         1636.000000         0.655594283       329.387515902     -7717.011283227     -7714.373363598       143.088143737
      1637         1637.000000         0.659106540       331.152164697     -7717.015348367     -7714.375586495       146.560203253
      1638         1638.000000         0.653562182       328.366536198     -7717.015153095     -7714.376281615       120.989911885
      1639         1639.000000         0.649335401       326.242891907     -7717.015255814     -7714.380578852       172.130743314
      1640         1640.000000         0.637687494       320.390682177     -7717.010031639     -7714.383768534       161.092208800
      1641         1641.000000         0.623551727       313.288507822     -7717.000924109     -7714.383261732       160.966385119
      1642         1642.000000         0.618261539       310.630580190     -7716.996836408     -7714.383695516       175.662934828
      1643         1643.000000         0.621293018       312.153674028     -7716.997246730     -7714.385126923       128.067597570
      1644         1644.000000         0.622108312       312.563298469     -7717.002283482     -7714.387411309       164.770939947
      1645         1645.000000         0.624013981       313.520755880     -7717.009330915     -7714.387976848       120.830159057
      1646         1646.000000         0.635820400       319.452606113     -7717.025359100     -7714.392053359       175.778705378
      1647         1647.000000         0.653908085       328.540326827     -7717.044089516     -7714.395252409       164.604574191
      1648         1648.000000         0.661938050       332.574788886     -7717.049990067     -7714.394026803       175.625328433
      1649         1649.000000         0.650026571       326.590153829     -7717.042407823     -7714.393348211       164.682946425
      1650         1650.000000         0.638270757       320.683728726     -7717.030710045     -7714.392802777       142.772517482
      1651         1651.000000         0.632857104       317.963769606     -7717.026016927     -7714.393944947       164.523302792
      1652         1652.000000         0.628268536       315.658354287     -7717.021786534     -7714.394699247       153.609637580
      1653         1653.000000         0.622303282       312.661256731     -7717.012120749     -7714.396274761       179.342081374
      1654         1654.000000         0.606425720       304.683958903     -7716.998768201     -7714.395764030       120.650959058
      1655         1655.000000         0.606391835       304.666934255     -7716.993847020     -7714.396205115       220.006361025
      1656         1656.000000         0.610021735       306.490689791     -7716.997694325     -7714.397091055       175.524298343
      1657         1657.000000         0.616294729       309.642404345     -7716.998493748     -7714.394206527       164.554295541
      1658         1658.000000         0.614772561       308.877627883     -7716.994148137     -7714.391338309       198.101727847
      1659         1659.000000         0.607049819       304.997522265     -7716.988329275     -7714.389489912       153.702502531
      1660         1660.000000         0.604641262       303.787401166     -7716.987717134     -7714.389222379       175.612080295
      1661         1661.000000         0.607838693       305.393872950     -7716.988830842     -7714.388307387       131.731738376
      1662         1662.000000         0.603654319       303.291535226     -7716.989812741     -7714.391741169       190.364347796
      1663         1663.000000         0.596678884       299.786896839     -7716.984114908     -7714.391800331       179.179422149
      1664         1664.000000         0.603445505       303.186622080     -7716.983092925     -7714.388950450       223.440046414
      1665         1665.000000         0.617355630       310.175428198     -7716.996296235     -7714.387682554       164.404728885
      1666         1666.000000         0.630441690       316.750203240     -7717.012207002     -7714.386079302       186.526169171
      1667         1667.000000         0.641442850       322.277470215     -7717.018712443     -7714.381790142       153.630142677
      1668         1668.000000         0.646329614       324.732707101     -7717.022966428     -7714.381850442       193.905618068
      1669         1669.000000         0.646686932       324.912232774     -7717.024166186     -7714.382120903       164.544322293
      1670         1670.000000         0.641291737       322.201547219     -7717.021976310     -7714.381243134       205.159951792
      1671         1671.000000         0.634610234       318.844587261     -7717.016191641     -7714.380889532       175.480939411
      1672         1672.000000         0.620788774       311.900328399     -7717.004417624     -7714.380294783       205.128990887
      1673         1673.000000         0.602408887       302.665798129     -7716.993514459     -7714.380701742       186.428270419
      1674         1674.000000         0.600695752       301.805074706     -7716.989524225     -7714.380466714       186.444325451
      1675         1675.000000         0.609719334       306.338755687     -7716.991380035     -7714.377253228       164.679311507
      1676         1676.000000         0.619026754       311.015043987     -7716.998208886     -7714.375450439       209.120013118
      1677         1677.000000         0.623860960       313.443874479     -7717.003995082     -7714.374645730       146.659303002
      1678         1678.000000         0.626910130       314.975856126     -7717.005216083     -7714.373435632       219.797688290
      1679         1679.000000         0.623963757       313.495522329     -7717.002458224     -7714.371563113       164.516708991
      1680         1680.000000         0.616297307       309.643699356     -7716.998331458     -7714.370123304       223.357169046
      1681         1681.000000         0.611944900       307.456937632     -7716.994548050     -7714.368789524       205.143253111
      1682         1682.000000         0.609000896       305.977794088     -7716.992515545     -7714.367713676       219.544664716
      1683         1683.000000         0.608592496       305.772603387     -7716.993482937     -7714.369311215       175.183881254
      1684         1684.000000         0.607074911       305.010129068     -7716.994937724     -7714.371571122       197.897781233
      1685         1685.000000         0.606430886       304.686554441     -7716.996861880     -7714.370185692       219.561034375
      1686         1686.000000         0.617955569       310.476853195     -7717.004007759     -7714.367726157       252.567341962
      1687         1687.000000         0.624922279       313.977108413     -7717.012596832     -7714.367334099       300.392935715
      1688         1688.000000         0.628386983       315.717865370     -7717.010386570     -7714.362647505       219.718078681
      1689         1689.000000         0.623228738       313.126229425     -7717.007878485     -7714.362881516       256.232674033
      1690         1690.000000         0.614511344       308.746385622     -7717.005498840     -7714.365437679       277.861725362
      1691         1691.000000         0.609921501       306.440329789     -7716.996935355     -7714.362536674       300.038911317
      1692         1692.000000         0.602803381       302.864002317     -7716.989643199     -7714.359904272       321.856038986
      1693         1693.000000         0.600873034       301.894146082     -7716.989807692     -7714.364820416       319.758764698
      1694         1694.000000         0.590359154       296.611700945     -7716.983259408     -7714.363607894       349.401508974
      1695         1695.000000         0.590516553       296.690782054     -7716.978416612     -7714.358303229       338.313002013
      1696         1696.000000         0.598113809       300.507840243     -7716.985901461     -7714.356790317       337.554059279
      1697         1697.000000         0.614187466       308.583660800     -7717.002363341     -7714.362117465       347.989109157
      1698         1698.000000         0.622723442       312.872356056     -7717.006269360     -7714.356547743       442.277195664
      1699         1699.000000         0.630554550       316.806906687     -7717.004166368     -7714.346385350       409.431000251
      1700         1700.000000         0.632972272       318.021632957     -7717.013277211     -7714.353820572       432.035679548
      1701         1701.000000         0.629897557       316.476816564     -7717.013178694     -7714.361237590       415.484831941
      1702         1702.000000         0.622813835       312.917771720     -7717.006755046     -7714.364089120       401.845467312
      1703         1703.000000         0.617689410       310.343127964     -7716.992781968     -7714.353402468       424.172572818
      1704         1704.000000         0.617149357       310.071791337     -7716.994127542     -7714.355695539       349.186613494
      1705         1705.000000         0.610767827       306.865545660     -7716.995057495     -7714.362391198       476.595553597
      1706         1706.000000         0.601801987       302.360875780     -7716.987720608     -7714.363121154       383.362891721
      1707         1707.000000         0.597411381       300.154921875     -7716.967832765     -7714.345055599       410.230144066
      1708         1708.000000         0.607777993       305.363376023     -7716.978388906     -7714.347410136       537.630105318
      1709         1709.000000         0.616342901       309.666607300     -7717.007684873     -7714.364910705       376.671261577
      1710         1710.000000         0.621011461       312.012212088     -7717.012130015     -7714.365579872       395.850369667
      1711         1711.000000         0.614885952       308.934598191     -7716.995465173     -7714.356954452       603.349300191
      1712         1712.000000         0.604584223       303.758743233     -7716.987679133     -7714.357578441       460.006065421
      1713         1713.000000         0.605720367       304.329571483     -7716.995622326     -7714.363991912       504.026648846
      1714         1714.000000         0.606691067       304.817276367     -7717.003560480     -7714.366766950       546.925452946
      1715         1715.000000         0.606793048       304.868514030     -7717.008407619     -7714.371740888       527.191916406
      1716         1716.000000         0.602261319       302.591656367     -7716.999054415     -7714.366497930       456.947060423
      1717         1717.000000         0.604620542       303.776990869     -7716.989917914     -7714.358860010       585.547002390
      1718         1718.000000         0.602693810       302.808951112     -7716.993122189     -7714.358701929       485.870956052
      1719         1719.000000         0.605762663       304.350821819     -7717.000524348     -7714.362531123       440.532255610
      1720         1720.000000         0.608272767       305.611962979     -7717.003243362     -7714.367275557       422.072215671
      1721         1721.000000         0.599986476       301.448716126     -7716.995575574     -7714.366890718       351.232460509
      1722         1722.000000         0.594532772       298.708634265     -7716.976225299     -7714.354637061       355.110775619
      1723         1723.000000         0.588512851       295.684070257     -7716.987195654     -7714.369283151       384.630886338
      1724         1724.000000         0.587921495       295.386957890     -7716.991214016     -7714.374457557       348.008523712
      1725         1725.000000         0.592731434       297.803595659     -7716.988491631     -7714.369699370       436.587626590
      1726         1726.000000         0.596234766       299.563760011     -7716.983576636     -7714.358896790       415.039779367
      1727         1727.000000         0.600586075       301.749970408     -7716.999140368     -7714.368495638       361.518322254
      1728         1728.000000         0.606812943       304.878509886     -7717.007371873     -7714.371609765       410.108194134
      1729         1729.000000         0.616055007       309.521961677     -7717.017538350     -7714.374672896       397.883060492
      1730         1730.000000         0.626415161       314.727170969     -7717.019014570     -7714.368953695       436.757393233
      1731         1731.000000         0.630076421       316.566682714     -7717.030366644     -7714.378260264       373.259464236
      1732         1732.000000         0.626694428       314.867482014     -7717.023870668     -7714.375843830       489.115214983
      1733         1733.000000         0.614803942       308.893394066     -7717.013379872     -7714.372628685       334.131050892
      1734         1734.000000         0.611903017       307.435894733     -7717.013788306     -7714.376349501       487.190496528
      1735         1735.000000         0.615305012       309.145144781     -7717.023716410     -7714.381045663       258.914070528
      1736         1736.000000         0.623952189       313.489710279     -7717.020431835     -7714.371916105       473.687902454
      1737         1737.000000         0.622675665       312.848351568     -7717.024639671     -7714.375845417       319.333847401
      1738         1738.000000         0.625031297       314.031881615     -7717.027132906     -7714.374887199       504.862829708
      1739         1739.000000         0.633679218       318.376820765     -7717.042965528     -7714.380266921       377.545964065
      1740         1740.000000         0.641715255       322.414333631     -7717.042924141     -7714.374504236       517.524089098
      1741         1741.000000         0.635305243       319.193777768     -7717.036128793     -7714.372603698       322.515841438
      1742         1742.000000         0.628126426       315.586954631     -7717.033326881     -7714.377925792       580.950793992
      1743         1743.000000         0.626191584       314.614840244     -7717.029816814     -7714.377341105       311.185788920
      1744         1744.000000         0.624673496       313.852113380     -7717.019022465     -7714.363796912       481.090653631
      1745         1745.000000         0.625934777       314.485813641     -7717.027337437     -7714.372222334       344.279271916
      1746         1746.000000         0.617045953       310.019838655     -7717.020322058     -7714.373203554       443.830169283
      1747         1747.000000         0.609320918       306.138581098     -7717.013996742     -7714.372847381       388.344788717
      1748         1748.000000         0.610140015       306.550116845     -7717.015760885     -7714.370174120       523.263972708
      1749         1749.000000         0.613162289       308.068585260     -7717.025070407     -7714.374007437       368.866290606
      1750         1750.000000         0.610591072       306.776739565     -7717.008803269     -7714.361561425       407.046070339
      1751         1751.000000         0.600074815       301.493100334     -7717.001358837     -7714.364040653       376.960544665
      1752         1752.000000         0.594411591       298.647750108     -7716.985913388     -7714.352706261       438.545104262
      1753         1753.000000         0.602892406       302.908730800     -7717.001751574     -7714.362667005       346.874953541
      1754         1754.000000         0.603207395       303.066989445     -7717.014650164     -7714.370582366       488.002991738
      1755         1755.000000         0.602651380       302.787633220     -7717.011639590     -7714.371427925       318.623951659
      1756         1756.000000         0.598785122       300.845125046     -7717.004661053     -7714.368238824       501.724627739
      1757         1757.000000         0.606463922       304.703152450     -7717.014419588     -7714.372245880       376.608114531
      1758         1758.000000         0.612193689       307.581935492     -7717.024689911     -7714.374197992       299.689208265
      1759         1759.000000         0.613633871       308.305520211     -7717.028262899     -7714.377197650       376.687081038
      1760         1760.000000         0.608216086       305.583485309     -7717.016409364     -7714.371969497       369.515379498
      1761         1761.000000         0.604234085       303.582824781     -7716.997061695     -7714.358179917       358.917848141
      1762         1762.000000         0.606310517       304.626078149     -7717.004771854     -7714.365652962       346.614060008
      1763         1763.000000         0.606182883       304.561951216     -7717.015599195     -7714.376829523       315.143311394
      1764         1764.000000         0.598602147       300.753193850     -7717.008767477     -7714.377578131       322.052571645
      1765         1765.000000         0.592683238       297.779380723     -7716.991980148     -7714.365761394       299.916453647
      1766         1766.000000         0.603134084       303.030155795     -7717.006900740     -7714.372640265       354.661592227
      1767         1767.000000         0.614874751       308.928970406     -7717.028137626     -7714.382059497       299.986686249
      1768         1768.000000         0.617563924       310.280080622     -7717.031759091     -7714.381816644       383.474490179
      1769         1769.000000         0.621836108       312.426536325     -7717.025595976     -7714.375885849       322.855803245
      1770         1770.000000         0.625136571       314.084774460     -7717.036071905     -7714.381547180       395.774601238
      1771         1771.000000         0.631138106       317.100100592     -7717.047403499     -7714.383917925       388.424682803
      1772         1772.000000         0.630194133       316.625823924     -7717.045667840     -7714.379926966       480.130065091
      1773         1773.000000         0.619026258       311.014794846     -7717.019899201     -7714.364707697       403.082045270
      1774         1774.000000         0.600897977       301.906677758     -7717.008526209     -7714.367204472       494.988639531
      1775         1775.000000         0.590975713       296.921476104     -7717.009129960     -7714.372708386       495.743288124
      1776         1776.000000         0.594063539       298.472879718     -7717.009984290     -7714.370992023       541.855392949
      1777         1777.000000         0.596953387       299.924814142     -7717.013091142     -7714.375209228       676.773107783
      1778         1778.000000         0.589579329       296.219896374     -7717.011005014     -7714.381626418       535.525711909
      1779         1779.000000         0.584515373       293.675634307     -7717.009063041     -7714.386304909       445.953768434
      1780         1780.000000         0.584693811       293.765285998     -7717.002779753     -7714.379294893       388.361350376
      1781         1781.000000         0.586570137       294.708000831     -7717.012903678     -7714.389330499       398.984896381
      1782         1782.000000         0.577527019       290.164504291     -7717.012115343     -7714.397612158       322.028691486
      1783         1783.000000         0.562285603       282.506823117     -7717.001798609     -7714.399532210       402.599165846
      1784         1784.000000         0.556537371       279.618762910     -7716.993632340     -7714.396621304       502.595374767
      1785         1785.000000         0.556034486       279.366100546     -7716.998427893     -7714.399753549       348.643192309
      1786         1786.000000         0.556457218       279.578491872     -7716.990227135     -7714.391527858       404.025631365
      1787         1787.000000         0.551269065       276.971829595     -7716.983773547     -7714.391646262       323.414535243
      1788         1788.000000         0.543774468       273.206350536     -7716.981233390     -7714.393940510       411.818929064
      1789         1789.000000         0.548975982       275.819725496     -7716.991851896     -7714.397093281       315.741712536
      1790         1790.000000         0.562605370       282.667482042     -7717.005434209     -7714.396608425       563.303965264
      1791         1791.000000         0.565245261       283.993831969     -7717.012800640     -7714.399538630       357.683225161
      1792         1792.000000         0.556178178       279.438294961     -7717.007595970     -7714.401787104       449.722757516
      1793         1793.000000         0.551909291       277.293495817     -7716.998966792     -7714.399675941       314.435796721
      1794         1794.000000         0.556048240       279.373010618     -7717.001903804     -7714.399859235       560.455315252
      1795         1795.000000         0.560517533       281.618498955     -7717.007949166     -7714.399139176       295.979627346
      1796         1796.000000         0.562896521       282.813763930     -7717.009224340     -7714.398139548       350.767898466
      1797         1797.000000         0.564422165       283.580286943     -7717.008948578     -7714.399314482       259.375714374
      1798         1798.000000         0.568936775       285.848543993     -7717.012413977     -7714.400090278       303.805116682
      1799         1799.000000         0.585864346       294.353392968     -7717.024396729     -7714.399632984       255.548499180
      1800         1800.000000         0.602880625       302.902811700     -7717.039025292     -7714.398151332       262.936804869
