#     Step Nr.          Time[fs]        Kin.[a.u.]          Temp[K]            Pot.[a.u.]        Cons Qty[a.u.]        UsedTime[s]
       601          601.000000         0.827071863       415.542285115     -7716.338954806     -7714.310751722      1726.697163907
       602          602.000000         0.820801960       412.392124166     -7716.331909296     -7714.311324113        75.818102263
       603          603.000000         0.820553219       412.267150285     -7716.335445462     -7714.313784594        57.500282461
       604          604.000000         0.827058966       415.535805605     -7716.347346753     -7714.318152860        50.578110360
       605          605.000000         0.824355034       414.177280006     -7716.348857637     -7714.320698281        50.678154888
       606          606.000000         0.814842281       409.397827168     -7716.342551005     -7714.321616182        50.852736671
       607          607.000000         0.816392454       410.176674221     -7716.343956965     -7714.322464330        43.435928748
       608          608.000000         0.829301118       416.662320446     -7716.354757421     -7714.323098816        54.380879429
       609          609.000000         0.838503728       421.285949628     -7716.364104691     -7714.322981658        76.157323435
       610          610.000000         0.836873252       420.466756746     -7716.363148059     -7714.321459916        65.381053769
       611          611.000000         0.828719841       416.370272232     -7716.359110790     -7714.319401004        76.298509320
       612          612.000000         0.837371698       420.717188719     -7716.368125576     -7714.319446265        98.212254534
       613          613.000000         0.852781059       428.459250260     -7716.387998792     -7714.321592444        58.131155314
       614          614.000000         0.855095106       429.621887114     -7716.394906599     -7714.322229528        65.431952857
       615          615.000000         0.843994502       424.044656511     -7716.384262052     -7714.321123574        76.467119764
       616          616.000000         0.834577066       419.313093588     -7716.376686195     -7714.320685772        54.413687147
       617          617.000000         0.838198909       421.132800804     -7716.384167939     -7714.322547499       101.887650005
       618          618.000000         0.849113712       426.616680149     -7716.394911452     -7714.324704874        58.038049375
       619          619.000000         0.845379576       424.740553668     -7716.395031638     -7714.325241731        98.133987994
       620          620.000000         0.837176522       420.619127173     -7716.390602386     -7714.325798226        94.463272806
       621          621.000000         0.845496325       424.799211403     -7716.394638194     -7714.327053101        68.940114531
       622          622.000000         0.855309885       429.729797411     -7716.409730418     -7714.330086621       106.056243937
       623          623.000000         0.860256056       432.214881847     -7716.418513151     -7714.332496237        65.220749361
       624          624.000000         0.852665492       428.401185972     -7716.411871361     -7714.332777879       116.694078133
       625          625.000000         0.845935737       425.019983168     -7716.405936563     -7714.332904177        65.366977299
       626          626.000000         0.847175567       425.642905998     -7716.413412985     -7714.334872791        90.715717443
       627          627.000000         0.857978782       431.070720467     -7716.424698645     -7714.337260580        72.448351984
       628          628.000000         0.850988853       427.558799177     -7716.425447168     -7714.338362252       116.665440490
       629          629.000000         0.841471631       422.777101230     -7716.416881986     -7714.338652145       112.908259254
       630          630.000000         0.829952832       416.989758473     -7716.411078433     -7714.338836063        72.430749266
       631          631.000000         0.836380348       420.219108789     -7716.414599408     -7714.339347238        72.348716580
       632          632.000000         0.832456303       418.247567222     -7716.416526866     -7714.340648153       120.090055831
       633          633.000000         0.819107329       411.540697425     -7716.404947537     -7714.340236648        76.082291486
       634          634.000000         0.804706794       404.305496497     -7716.394571209     -7714.339914936       101.574748815
       635          635.000000         0.802953779       403.424736629     -7716.397002847     -7714.341075740       116.800392594
       636          636.000000         0.807493049       405.705382836     -7716.402405466     -7714.341648072       116.678484076
       637          637.000000         0.800467821       402.175726710     -7716.400865356     -7714.340623242       116.676960411
       638          638.000000         0.791880365       397.861166732     -7716.394901997     -7714.338439847        72.573456357
       639          639.000000         0.794684493       399.270033356     -7716.395198782     -7714.336622736       120.317214342
       640          640.000000         0.803952729       403.926634666     -7716.406720503     -7714.336311098        72.665399570
       641          641.000000         0.815669003       409.813193772     -7716.417901319     -7714.336937925       116.718895009
       642          642.000000         0.812654402       408.298580058     -7716.417314122     -7714.336488158       101.773240918
       643          643.000000         0.815563550       409.760211203     -7716.417337975     -7714.335224232       106.138771660
       644          644.000000         0.824014860       414.006367884     -7716.431713007     -7714.335646979       127.551785385
       645          645.000000         0.839513213       421.793141296     -7716.449318713     -7714.336435499        94.777182311
       646          646.000000         0.849342109       426.731432620     -7716.454763693     -7714.335774624        94.453265677
       647          647.000000         0.843676755       423.885012133     -7716.449238058     -7714.333991860       105.988880013
       648          648.000000         0.841145845       422.613417562     -7716.446424695     -7714.332315296       116.784425009
       649          649.000000         0.848586769       426.351930192     -7716.453496488     -7714.332886245       131.173502656
       650          650.000000         0.846978428       425.543858359     -7716.456186458     -7714.334379828       106.123704385
       651          651.000000         0.828342217       416.180544251     -7716.442425094     -7714.334012095       101.727399200
       652          652.000000         0.812546301       408.244267375     -7716.425656857     -7714.332715339       106.116474699
       653          653.000000         0.806324307       405.118177074     -7716.421738534     -7714.332536935       116.962033736
       654          654.000000         0.809432415       406.679770642     -7716.426147087     -7714.333400243       131.486788261
       655          655.000000         0.804128488       404.014940681     -7716.424081127     -7714.333340016        94.777398010
       656          656.000000         0.795071350       399.464400429     -7716.413293302     -7714.332125348       128.006107090
       657          657.000000         0.792244569       398.044152695     -7716.408638349     -7714.332158581       116.981947443
       658          658.000000         0.800779135       402.332139095     -7716.416364262     -7714.333826134       116.930647635
       659          659.000000         0.803269963       403.583595579     -7716.423011383     -7714.334520400       116.919645634
       660          660.000000         0.797617287       400.743545053     -7716.420333913     -7714.334610795       131.614514658
       661          661.000000         0.790902229       397.369726389     -7716.413049511     -7714.333614062        94.699104180
       662          662.000000         0.788480457       396.152965493     -7716.412886726     -7714.333025952       142.518516514
       663          663.000000         0.793515709       398.682806149     -7716.421424675     -7714.334336640       117.047512175
       664          664.000000         0.799897782       401.889324762     -7716.426749507     -7714.335332299       120.665970721
       665          665.000000         0.791885292       397.863642612     -7716.423003998     -7714.333934536       117.040894462
       666          666.000000         0.795717537       399.789061600     -7716.425391961     -7714.333214101       131.465613544
       667          667.000000         0.803968368       403.934492035     -7716.438965185     -7714.334015937       120.782993723
       668          668.000000         0.812836893       408.390268175     -7716.447885398     -7714.333390188       120.729697248
       669          669.000000         0.813167174       408.556210168     -7716.446971482     -7714.331861427       117.250531411
       670          670.000000         0.814446021       409.198736104     -7716.443475050     -7714.330072488       120.854978750
       671          671.000000         0.821301652       412.643182380     -7716.447890046     -7714.330160953       131.914094776
       672          672.000000         0.829222728       416.622935353     -7716.457971910     -7714.331019785       117.348551631
       673          673.000000         0.828994459       416.508247121     -7716.462356084     -7714.331162074       131.830881365
       674          674.000000         0.822181015       413.084996663     -7716.457339990     -7714.329689853       120.963829534
       675          675.000000         0.820149555       412.064339071     -7716.457647826     -7714.328777471       142.915764523
       676          676.000000         0.833076619       418.559230099     -7716.469689491     -7714.328975427       121.056677395
       677          677.000000         0.847457796       425.784705187     -7716.482609254     -7714.328465547       142.932153634
       678          678.000000         0.856775500       430.466160283     -7716.491908979     -7714.328651137       131.988988601
       679          679.000000         0.866780349       435.492855228     -7716.496944409     -7714.327969739       117.452584893
       680          680.000000         0.872303130       438.267643335     -7716.505486009     -7714.330396366       168.530817579
       681          681.000000         0.872361960       438.297200892     -7716.508996910     -7714.330428989        95.077549331
       682          682.000000         0.861947122       433.064516871     -7716.500223163     -7714.329923203       198.749885039
       683          683.000000         0.844868659       424.483855968     -7716.486029107     -7714.328921605       194.696179598
       684          684.000000         0.843173301       423.632063811     -7716.483202320     -7714.327025115       165.188882316
       685          685.000000         0.850185820       427.155334791     -7716.489309335     -7714.326837136       176.203986561
       686          686.000000         0.848291262       426.203460043     -7716.488550539     -7714.325936943       154.454012447
       687          687.000000         0.840650280       422.364432929     -7716.477562939     -7714.321479553       139.596504615
       688          688.000000         0.834367739       419.207921794     -7716.472427494     -7714.322249999       183.975744478
       689          689.000000         0.832787217       418.413827130     -7716.473383288     -7714.320884431       154.396830893
       690          690.000000         0.843852417       423.973269556     -7716.484336253     -7714.318282846       206.225086987
       691          691.000000         0.860891007       432.533897448     -7716.498519629     -7714.317915835       154.449317031
       692          692.000000         0.861441006       432.810231450     -7716.498309738     -7714.316938815       209.785064596
       693          693.000000         0.848971633       426.545295940     -7716.482852407     -7714.313710673       132.240552081
       694          694.000000         0.847579091       425.845646686     -7716.481028058     -7714.313391545       199.276577416
       695          695.000000         0.861014853       432.596120960     -7716.498907980     -7714.316257554       179.420780871
       696          696.000000         0.863955840       434.073748740     -7716.495981962     -7714.311757420       179.588364474
       697          697.000000         0.849529966       426.825817019     -7716.479579816     -7714.306423078       153.742188165
       698          698.000000         0.841945424       423.015146796     -7716.471305416     -7714.304361675       164.768190890
       699          699.000000         0.850118591       427.121557154     -7716.475848060     -7714.303058841       120.893294920
       700          700.000000         0.863069768       433.628563536     -7716.487491481     -7714.305199010       179.317994573
       701          701.000000         0.865832963       435.016864197     -7716.489351445     -7714.305562283       175.718234200
       702          702.000000         0.862673280       433.429357517     -7716.485311864     -7714.302642325       153.778330314
       703          703.000000         0.858953771       431.560579937     -7716.487798435     -7714.303235963       153.851123407
       704          704.000000         0.845504122       424.803128971     -7716.478794534     -7714.302183541       143.958007284
       705          705.000000         0.842629555       423.358871893     -7716.471602881     -7714.301853203       164.905275860
       706          706.000000         0.845245454       424.673167389     -7716.480678577     -7714.304133862       142.759579550
       707          707.000000         0.850847622       427.487841081     -7716.482347167     -7714.301078959       175.898932450
       708          708.000000         0.861156072       432.667073212     -7716.488624534     -7714.298918500       131.976149353
       709          709.000000         0.866157788       435.180064560     -7716.502950313     -7714.302940962       179.571079168
       710          710.000000         0.868125348       436.168617252     -7716.507683038     -7714.305831587       153.959864057
       711          711.000000         0.861425785       432.802583670     -7716.505519662     -7714.304137763       209.446296440
       712          712.000000         0.874275705       439.258716030     -7716.516780119     -7714.304885858       164.886387120
       713          713.000000         0.882550421       443.416147031     -7716.532944608     -7714.307810652       164.824238347
       714          714.000000         0.872235446       438.233637228     -7716.526860051     -7714.307593847       153.903951427
       715          715.000000         0.858022403       431.092636558     -7716.513514788     -7714.308594583       194.213517445
       716          716.000000         0.852188094       428.161329196     -7716.514318262     -7714.311024239       132.015848718
       717          717.000000         0.851204829       427.667311417     -7716.513808409     -7714.312235641       206.062749085
       718          718.000000         0.840782093       422.430659428     -7716.513387386     -7714.316966964       206.005250587
       719          719.000000         0.831856302       417.946111353     -7716.503906349     -7714.317288509       194.198401869
       720          720.000000         0.818195363       411.082502240     -7716.491527619     -7714.315760706       186.485645451
       721          721.000000         0.815632222       409.794713859     -7716.489324681     -7714.314985031       164.487930058
       722          722.000000         0.820382553       412.181402827     -7716.501678896     -7714.318900028       175.318930110
       723          723.000000         0.817897006       410.932599917     -7716.504138953     -7714.322202925       131.456792724
       724          724.000000         0.801085475       402.486052021     -7716.486201218     -7714.321527498       186.307040666
       725          725.000000         0.801025203       402.455769905     -7716.495445705     -7714.326170578       160.680218898
       726          726.000000         0.818869751       411.421332130     -7716.515609612     -7714.327983346       197.589295795
       727          727.000000         0.824768021       414.384775549     -7716.519184857     -7714.326153087       131.541318534
       728          728.000000         0.817249789       410.607421464     -7716.514655887     -7714.326185720       205.092724142
       729          729.000000         0.811494567       407.715848965     -7716.507724189     -7714.325477639       142.446582428
       730          730.000000         0.809769491       406.849126361     -7716.508281252     -7714.325459182       219.086865020
       731          731.000000         0.814708106       409.330414308     -7716.518342003     -7714.326390365       160.391968154
       732          732.000000         0.817289472       410.627359130     -7716.524758489     -7714.327127899       193.275764160
       733          733.000000         0.810995611       407.465160629     -7716.515413546     -7714.327223748       164.081825080
       734          734.000000         0.796524633       400.194567311     -7716.503372553     -7714.325857478       174.897421230
       735          735.000000         0.802288742       403.090604403     -7716.514344867     -7714.326909781       163.968539014
       736          736.000000         0.822134911       413.061833260     -7716.528276136     -7714.325204344       178.429291132
       737          737.000000         0.822683647       413.337532365     -7716.527796880     -7714.321024147       185.942663369
       738          738.000000         0.821940514       412.964163070     -7716.519810706     -7714.316229097       174.840534010
       739          739.000000         0.822474720       413.232561753     -7716.516201707     -7714.312934079       185.766064252
       740          740.000000         0.823432168       413.713608222     -7716.516282825     -7714.310653853       163.714327769
       741          741.000000         0.815878541       409.918470929     -7716.511985367     -7714.308841190       204.429154465
       742          742.000000         0.806642705       405.278148113     -7716.505060397     -7714.306547848       182.081189484
       743          743.000000         0.802753285       403.324003165     -7716.506123552     -7714.307120159       240.822847807
       744          744.000000         0.805175045       404.540757681     -7716.513006859     -7714.310195817       219.149067738
       745          745.000000         0.810594263       407.263513240     -7716.511670879     -7714.307033026       219.155721285
       746          746.000000         0.817029087       410.496535210     -7716.513473851     -7714.302900113       240.911080385
       747          747.000000         0.825244183       414.624011491     -7716.517557846     -7714.297556292       277.251208997
       748          748.000000         0.826005943       415.006739455     -7716.524979390     -7714.299298391       314.335616532
       749          749.000000         0.824071055       414.034601696     -7716.532194262     -7714.301319706       219.231532630
       750          750.000000         0.820792753       412.387498264     -7716.531612253     -7714.299929115       314.594167122
       751          751.000000         0.811000210       407.467471322     -7716.513232358     -7714.288749698       314.717880195
       752          752.000000         0.803054086       403.475133047     -7716.498727240     -7714.281491741       321.703716353
       753          753.000000         0.806287613       405.099740833     -7716.506368881     -7714.286181235       358.703070262
       754          754.000000         0.809501723       406.714592748     -7716.515802319     -7714.289891718       350.927314413
       755          755.000000         0.799828089       401.854308835     -7716.504811618     -7714.289637619       332.869380598
       756          756.000000         0.800177679       402.029952081     -7716.503429137     -7714.290461858       343.631593612
       757          757.000000         0.817339521       410.652505076     -7716.518970237     -7714.285265562       358.031438969
       758          758.000000         0.823832494       413.914742705     -7716.519888857     -7714.275891895       322.459424795
       759          759.000000         0.821496837       412.741248018     -7716.514651360     -7714.276622431       358.093666553
       760          760.000000         0.807560598       405.739321529     -7716.516500040     -7714.288704885       332.556198808
       761          761.000000         0.800785035       402.335103291     -7716.502150398     -7714.280291658       409.796133487
       762          762.000000         0.793669246       398.759947159     -7716.497307082     -7714.278543528       445.541840643
       763          763.000000         0.784714217       394.260708738     -7716.500385741     -7714.289052967       401.880749403
       764          764.000000         0.763289336       383.496295093     -7716.484536536     -7714.293041429       398.429874342
       765          765.000000         0.752209674       377.929586452     -7716.456519770     -7714.278191030       424.882512132
       766          766.000000         0.768881060       386.305721439     -7716.484503813     -7714.287202932       406.067025194
       767          767.000000         0.789677798       396.754540442     -7716.502468502     -7714.288533597       494.378423128
       768          768.000000         0.789964525       396.898599551     -7716.482774165     -7714.269597890       421.633951894
       769          769.000000         0.783484438       393.642836164     -7716.487980212     -7714.276721936       532.963425062
       770          770.000000         0.791798010       397.819789521     -7716.513217836     -7714.293023853       576.574744261
       771          771.000000         0.804267795       404.084932077     -7716.539558336     -7714.302254680       592.996235460
       772          772.000000         0.816572690       410.267229615     -7716.557301610     -7714.307889650       443.660734005
       773          773.000000         0.806920368       405.417653468     -7716.552752620     -7714.309115135       536.981372111
       774          774.000000         0.790963672       397.400596813     -7716.533499768     -7714.303716052       411.945509659
       775          775.000000         0.802234243       403.063223143     -7716.558126177     -7714.312822270       536.546393788
       776          776.000000         0.825424933       414.714825371     -7716.585255798     -7714.313031068       413.073893147
       777          777.000000         0.825119202       414.561217840     -7716.583293229     -7714.306132225       574.459406386
       778          778.000000         0.820784186       412.383193740     -7716.577578143     -7714.305235772       597.186551731
       779          779.000000         0.819867268       411.922510588     -7716.586143317     -7714.312953235       498.900304677
       780          780.000000         0.826804630       415.408020746     -7716.600415854     -7714.319193541       486.420459303
       781          781.000000         0.830949201       417.490359978     -7716.600674018     -7714.313947197       412.339179292
       782          782.000000         0.821042202       412.512827700     -7716.587966198     -7714.309483103       356.885133475
       783          783.000000         0.793850973       398.851251158     -7716.574729522     -7714.319146719       412.162004659
       784          784.000000         0.773188931       388.470107249     -7716.543061874     -7714.307873011       406.583763019
       785          785.000000         0.779054875       391.417309018     -7716.546542030     -7714.306819312       491.150718974
       786          786.000000         0.788138062       395.980937116     -7716.562397389     -7714.312100083       413.926774554
       787          787.000000         0.788116704       395.970206397     -7716.557131572     -7714.307324659       484.677387308
       788          788.000000         0.788443027       396.134159245     -7716.557992119     -7714.306319929       597.773768257
       789          789.000000         0.798832179       401.353937799     -7716.572749131     -7714.310340017       606.573289936
       790          790.000000         0.812422424       408.182028287     -7716.555743050     -7714.281097302       428.013640505
       791          791.000000         0.813421793       408.684137352     -7716.570378753     -7714.289291222       527.161103729
       792          792.000000         0.814596450       409.274315460     -7716.589700212     -7714.305526451       412.410349419
       793          793.000000         0.826187104       415.097759660     -7716.593376720     -7714.304877729       408.148158853
       794          794.000000         0.825211897       414.607790414     -7716.588979845     -7714.299859119       434.281330529
       795          795.000000         0.813099243       408.522079809     -7716.577486178     -7714.297736730       410.547749737
       796          796.000000         0.810673887       407.303518449     -7716.571701670     -7714.292192083       496.636438548
       797          797.000000         0.823179418       413.586620230     -7716.590306630     -7714.295865869       502.510290598
       798          798.000000         0.825820186       414.913410429     -7716.584705131     -7714.283740970       503.499686306
       799          799.000000         0.824522106       414.261221638     -7716.572741302     -7714.278080170       498.737636495
       800          800.000000         0.810256772       407.093948974     -7716.568818475     -7714.286490174       524.676505088
