#     Step Nr.          Time[fs]        Kin.[a.u.]          Temp[K]            Pot.[a.u.]        Cons Qty[a.u.]        UsedTime[s]
      2001         2001.000000         0.564815923       283.778121316     -7717.017108646     -7714.372353327      1809.039417668
      2002         2002.000000         0.564287539       283.512647500     -7717.019577539     -7714.375046724        77.423098383
      2003         2003.000000         0.567538765       285.146147727     -7717.031364868     -7714.378751267        58.967898512
      2004         2004.000000         0.578549829       290.678390848     -7717.048478467     -7714.383271328        51.778787081
      2005         2005.000000         0.583170696       293.000033859     -7717.059490457     -7714.387398262        51.813879228
      2006         2006.000000         0.571419687       287.096022862     -7717.056164096     -7714.389442554        51.984180619
      2007         2007.000000         0.561041033       281.881519112     -7717.046416542     -7714.389896059        51.861873832
      2008         2008.000000         0.556803713       279.752579848     -7717.042329392     -7714.390226148        66.712533011
      2009         2009.000000         0.553855290       278.271215940     -7717.042776119     -7714.390305470        55.684977537
      2010         2010.000000         0.551108431       276.891122774     -7717.038849775     -7714.389044553        81.642055114
      2011         2011.000000         0.554858075       278.775041243     -7717.037373442     -7714.388246337        92.707175813
      2012         2012.000000         0.559217718       280.965438428     -7717.046704716     -7714.388900574        74.129159393
      2013         2013.000000         0.566116773       284.431701921     -7717.060972844     -7714.390383690       119.192654291
      2014         2014.000000         0.577151257       289.975711776     -7717.071777447     -7714.390734159        51.943587109
      2015         2015.000000         0.580296528       291.555977366     -7717.080472906     -7714.391420791       115.627434163
      2016         2016.000000         0.582620731       292.723717048     -7717.083520561     -7714.391541286        92.708720738
      2017         2017.000000         0.580329890       291.572739154     -7717.079182068     -7714.389612754       118.972903087
      2018         2018.000000         0.574749691       288.769103072     -7717.073308567     -7714.388111540       133.886392144
      2019         2019.000000         0.563506049       283.120006614     -7717.064327318     -7714.386786819       123.010892227
      2020         2020.000000         0.556121277       279.409706128     -7717.055599717     -7714.384762419       119.251203288
      2021         2021.000000         0.562627561       282.678631422     -7717.059482743     -7714.384936704       133.857231416
      2022         2022.000000         0.574902201       288.845727880     -7717.071865303     -7714.386101977       119.095833617
      2023         2023.000000         0.585650352       294.245876930     -7717.081247839     -7714.386395874       133.926319152
      2024         2024.000000         0.588722521       295.789414338     -7717.083473855     -7714.386162534       119.156132039
      2025         2025.000000         0.588255925       295.554984225     -7717.078817495     -7714.387325106       156.200266982
      2026         2026.000000         0.581928958       292.376152482     -7717.072759909     -7714.388035997       133.712574074
      2027         2027.000000         0.580876578       291.847409329     -7717.073288073     -7714.389518902       171.092799389
      2028         2028.000000         0.581495593       292.158418491     -7717.069188483     -7714.389553567       163.641633002
      2029         2029.000000         0.568255138       285.506071939     -7717.054895810     -7714.387120986       156.090907803
      2030         2030.000000         0.558803114       280.757130772     -7717.043934452     -7714.384394149       141.409909480
      2031         2031.000000         0.557874784       280.290713358     -7717.046257293     -7714.387080771       178.459301495
      2032         2032.000000         0.560231443       281.474760097     -7717.048408828     -7714.388925737       141.468912910
      2033         2033.000000         0.562036651       282.381743139     -7717.050567700     -7714.391845023       178.372271457
      2034         2034.000000         0.561581268       282.152946927     -7717.051141678     -7714.393725245       167.190984263
      2035         2035.000000         0.561032470       281.877216560     -7717.048403959     -7714.392352226       196.962494029
      2036         2036.000000         0.559876445       281.296399934     -7717.044243774     -7714.389124684       167.069146839
      2037         2037.000000         0.553269726       277.977013420     -7717.037019997     -7714.386323781       189.262733871
      2038         2038.000000         0.541989262       272.309416816     -7717.026316993     -7714.383408379       156.022652027
      2039         2039.000000         0.540191504       271.406176758     -7717.023029655     -7714.382751468       197.063695595
      2040         2040.000000         0.543647910       273.142764203     -7717.031497672     -7714.385805729       189.536775732
      2041         2041.000000         0.555131415       278.912374277     -7717.040543353     -7714.388178473       212.097130646
      2042         2042.000000         0.558010647       280.358974856     -7717.042413309     -7714.385697858       223.203154484
      2043         2043.000000         0.562016384       282.371560646     -7717.044326014     -7714.382139932       226.946907993
      2044         2044.000000         0.572627680       287.702949842     -7717.058284277     -7714.386488857       230.682882099
      2045         2045.000000         0.583061454       292.945147780     -7717.072078870     -7714.390237260       223.316232619
      2046         2046.000000         0.598261420       300.582003348     -7717.078987708     -7714.389972891       235.365874001
      2047         2047.000000         0.596494659       299.694336978     -7717.081296868     -7714.389232177       227.173685771
      2048         2048.000000         0.598121181       300.511543876     -7717.085062257     -7714.393231824       260.378134392
      2049         2049.000000         0.593058050       297.967695787     -7717.084712608     -7714.394098873       249.451462648
      2050         2050.000000         0.593663782       298.272031481     -7717.083530923     -7714.394512113       305.099180908
      2051         2051.000000         0.592028503       297.450424929     -7717.084563866     -7714.397945377       305.062798837
      2052         2052.000000         0.590660295       296.763001863     -7717.083809424     -7714.397699362       282.934327831
      2053         2053.000000         0.593801541       298.341244837     -7717.084455286     -7714.393496901       305.463632504
      2054         2054.000000         0.597641794       300.270687414     -7717.092990876     -7714.398304503       317.669678712
      2055         2055.000000         0.595414600       299.151687681     -7717.089013437     -7714.396848345       301.181560355
      2056         2056.000000         0.589878219       296.370066540     -7717.083592167     -7714.395973396       317.174133561
      2057         2057.000000         0.584275922       293.555327638     -7717.083870080     -7714.398616605       388.374645023
      2058         2058.000000         0.585994402       294.418736840     -7717.083837010     -7714.398360323       349.596055917
      2059         2059.000000         0.588202470       295.528127240     -7717.081368391     -7714.395384979       397.918244823
      2060         2060.000000         0.587401900       295.125899880     -7717.079501353     -7714.395405868       421.561995594
      2061         2061.000000         0.582730171       292.778702604     -7717.073312477     -7714.392845941       323.872842188
      2062         2062.000000         0.579877466       291.345429861     -7717.067663922     -7714.386441008       452.545503740
      2063         2063.000000         0.581942068       292.382739472     -7717.073538614     -7714.388100552       501.849400073
      2064         2064.000000         0.586300117       294.572335614     -7717.077893815     -7714.391716683       540.285302440
      2065         2065.000000         0.587439180       295.144630433     -7717.067767486     -7714.383957532       492.276432257
      2066         2066.000000         0.582414480       292.620091395     -7717.072260173     -7714.391291335       553.695628235
      2067         2067.000000         0.581324844       292.072630171     -7717.070544650     -7714.393122592       356.423398233
      2068         2068.000000         0.577713859       290.258377701     -7717.069779401     -7714.397933918       409.141303981
      2069         2069.000000         0.567224194       284.988098968     -7717.055139204     -7714.391856072       402.171778927
      2070         2070.000000         0.566142214       284.444484346     -7717.049890585     -7714.394210981       434.033740818
      2071         2071.000000         0.564569567       283.654345499     -7717.048622668     -7714.395005847       395.188907415
      2072         2072.000000         0.566198831       284.472929815     -7717.045755674     -7714.391429305       505.818242397
      2073         2073.000000         0.566695417       284.722427799     -7717.043349422     -7714.391707042       437.409157027
      2074         2074.000000         0.559545788       281.130268956     -7717.044148528     -7714.396696192       416.891489294
      2075         2075.000000         0.561662220       282.193619438     -7717.039929571     -7714.391504021       459.374391296
      2076         2076.000000         0.573120560       287.950585384     -7717.050782201     -7714.392898994       490.672894600
      2077         2077.000000         0.582018947       292.421365373     -7717.066174215     -7714.394849839       417.132691219
      2078         2078.000000         0.588518476       295.686896497     -7717.062580832     -7714.385727487       503.211354590
      2079         2079.000000         0.589325197       296.092214092     -7717.066148795     -7714.390640407       483.547044341
      2080         2080.000000         0.594038904       298.460502369     -7717.075703752     -7714.396128446       405.027132280
      2081         2081.000000         0.608026377       305.488170592     -7717.081601675     -7714.389917161       327.095327950
      2082         2082.000000         0.617232249       310.113438742     -7717.097621051     -7714.396357182       363.815960990
      2083         2083.000000         0.618399267       310.699778722     -7717.092129161     -7714.392252944       405.054602908
      2084         2084.000000         0.613608265       308.292655350     -7717.082037051     -7714.388366057       714.061254685
      2085         2085.000000         0.613569540       308.273199003     -7717.083608532     -7714.390234454       417.070106789
      2086         2086.000000         0.620245747       311.627497745     -7717.091301844     -7714.393498920       464.102861403
      2087         2087.000000         0.619121131       311.062461850     -7717.088725072     -7714.391364361       461.029345001
      2088         2088.000000         0.608664942       305.809001957     -7717.084821150     -7714.395214373       475.449042682
      2089         2089.000000         0.597324650       300.111345995     -7717.073248490     -7714.393842268       501.643801250
      2090         2090.000000         0.590545135       296.705142332     -7717.060825962     -7714.387758519       691.944844303
      2091         2091.000000         0.589299485       296.079295560     -7717.064236015     -7714.393332985       393.323835135
      2092         2092.000000         0.582663939       292.745425662     -7717.045356839     -7714.380870422       508.384517264
      2093         2093.000000         0.572575815       287.676891697     -7717.042739016     -7714.389403814       463.461884864
      2094         2094.000000         0.567915242       285.335299447     -7717.042504728     -7714.395402676       494.148776399
      2095         2095.000000         0.568911351       285.835769924     -7717.043196986     -7714.396630984       489.504416184
      2096         2096.000000         0.571395464       287.083852685     -7717.035955247     -7714.391373093       471.190955549
      2097         2097.000000         0.563030365       282.881010742     -7717.034512880     -7714.393889617       418.300334181
      2098         2098.000000         0.554790915       278.741298115     -7717.033335854     -7714.397281007       418.136901091
      2099         2099.000000         0.548230168       275.445009268     -7717.028242783     -7714.396920872       364.923355402
      2100         2100.000000         0.549266090       275.965482959     -7717.020641682     -7714.390196751       436.808273748
      2101         2101.000000         0.556110067       279.404074397     -7717.029060918     -7714.394118761       419.406372679
      2102         2102.000000         0.560829470       281.775224337     -7717.040410091     -7714.399759908       450.924019685
      2103         2103.000000         0.565543587       284.143718594     -7717.041027270     -7714.395265066       414.646659267
      2104         2104.000000         0.571879725       287.327157820     -7717.040841511     -7714.389888391       449.587780576
      2105         2105.000000         0.574183544       288.484656138     -7717.044390957     -7714.388864313       449.719327403
      2106         2106.000000         0.582528573       292.677414617     -7717.058142919     -7714.395943478       540.793292457
      2107         2107.000000         0.588610608       295.733186336     -7717.072109055     -7714.400369016       412.211451914
      2108         2108.000000         0.592123301       297.498053806     -7717.075541861     -7714.399263454       569.443648742
      2109         2109.000000         0.587342900       295.096256946     -7717.069311884     -7714.397233477       583.712191078
      2110         2110.000000         0.585740958       294.291399615     -7717.066611478     -7714.398052575       427.704404404
      2111         2111.000000         0.594249676       298.566399894     -7717.082897498     -7714.408989925       393.036731730
      2112         2112.000000         0.609431311       306.194045520     -7717.094404630     -7714.411080919       440.789167519
      2113         2113.000000         0.610972656       306.968457065     -7717.094024254     -7714.408593725       411.319132103
      2114         2114.000000         0.606812470       304.878271937     -7717.063066058     -7714.382943525       407.925605181
      2115         2115.000000         0.607025092       304.985099012     -7717.075676878     -7714.395203280       419.130115071
      2116         2116.000000         0.617590975       310.293671586     -7717.092311956     -7714.402905537       511.531686402
      2117         2117.000000         0.625330225       314.182070945     -7717.100693130     -7714.405902677       542.830225530
      2118         2118.000000         0.614745650       308.864106822     -7717.088884034     -7714.402967043       528.823858267
      2119         2119.000000         0.603242122       303.084437033     -7717.074864841     -7714.406144319       586.524927780
      2120         2120.000000         0.594351172       298.617394090     -7717.064272356     -7714.405177725       487.073434188
      2121         2121.000000         0.598240524       300.571504763     -7717.069532679     -7714.408979865       587.766862379
      2122         2122.000000         0.602252253       302.587101264     -7717.074181791     -7714.411941110       393.079312593
      2123         2123.000000         0.599235511       301.071412290     -7717.061348992     -7714.404602743       441.793711665
      2124         2124.000000         0.594468901       298.676544016     -7717.054618331     -7714.405218752       415.113255985
      2125         2125.000000         0.600857977       301.886580966     -7717.053298854     -7714.402403559       496.751302803
      2126         2126.000000         0.612907445       307.940545102     -7717.066728778     -7714.402522861       423.324535977
      2127         2127.000000         0.624274994       313.651895684     -7717.071915558     -7714.397258394       498.000566158
      2128         2128.000000         0.617949541       310.473824509     -7717.072411427     -7714.403946929       438.293379991
      2129         2129.000000         0.601758776       302.339165777     -7717.051017527     -7714.396575470       605.295633118
      2130         2130.000000         0.596453279       299.673546757     -7717.052941175     -7714.402305535       509.249211578
      2131         2131.000000         0.602774538       302.849510945     -7717.059759276     -7714.402928284       491.068871170
      2132         2132.000000         0.605688602       304.313611696     -7717.066117566     -7714.407135823       394.079866192
      2133         2133.000000         0.600690566       301.802469450     -7717.054538908     -7714.401900857       508.610065908
      2134         2134.000000         0.591883394       297.377518351     -7717.043615087     -7714.398924633       445.005426818
      2135         2135.000000         0.590436100       296.650360664     -7717.038138320     -7714.392963506       434.575153235
      2136         2136.000000         0.597775771       300.338000739     -7717.053145838     -7714.400013760       449.147068439
      2137         2137.000000         0.602886323       302.905674617     -7717.055640712     -7714.397904204       516.122352960
      2138         2138.000000         0.598890579       300.898109329     -7717.043275746     -7714.389006839       527.168191224
      2139         2139.000000         0.594973572       298.930103747     -7717.040344668     -7714.392072932       498.522801956
      2140         2140.000000         0.598974511       300.940278834     -7717.048805789     -7714.398843920       479.929641526
      2141         2141.000000         0.606013966       304.477082972     -7717.067941222     -7714.407984147       370.589889113
      2142         2142.000000         0.615095809       309.040035596     -7717.066036001     -7714.399573337       561.886498901
      2143         2143.000000         0.613665413       308.321368126     -7717.064495195     -7714.399010980       408.647260594
      2144         2144.000000         0.616087326       309.538199414     -7717.064228436     -7714.395955137       526.452776012
      2145         2145.000000         0.627111823       315.077191978     -7717.085786480     -7714.404591828       355.242716947
      2146         2146.000000         0.644325305       323.725690499     -7717.096682323     -7714.402403400       527.042729839
      2147         2147.000000         0.645559017       324.345539078     -7717.097600165     -7714.404151833       386.878898874
      2148         2148.000000         0.634212521       318.644766134     -7717.079513691     -7714.397357239       463.743770980
      2149         2149.000000         0.625381829       314.207997991     -7717.074555403     -7714.398274566       347.441161000
      2150         2150.000000         0.628191320       315.619559313     -7717.075127522     -7714.395180286       586.597725946
      2151         2151.000000         0.631703579       317.384208730     -7717.084963065     -7714.400554122       318.652003932
      2152         2152.000000         0.625155159       314.094113422     -7717.071678242     -7714.392690557       479.641746591
      2153         2153.000000         0.613369498       308.172692765     -7717.060972929     -7714.392782277       355.304979098
      2154         2154.000000         0.609661202       306.309548933     -7717.059183118     -7714.396350461       322.116357721
      2155         2155.000000         0.611622419       307.294915013     -7717.058233142     -7714.392582907       303.977755640
      2156         2156.000000         0.619972765       311.490344449     -7717.069201048     -7714.397246054       318.797663511
      2157         2157.000000         0.626420946       314.730077531     -7717.078032591     -7714.403275987       303.977555096
      2158         2158.000000         0.627522979       315.283767420     -7717.073222324     -7714.399804543       326.214113746
      2159         2159.000000         0.618785005       310.893583489     -7717.073069107     -7714.403121317       300.943698414
      2160         2160.000000         0.612884604       307.929069055     -7717.073142699     -7714.408121333       348.611866637
      2161         2161.000000         0.609391456       306.174021157     -7717.072784028     -7714.412189441       352.441622521
      2162         2162.000000         0.611153515       307.059325635     -7717.074990145     -7714.414895845       392.860960668
      2163         2163.000000         0.612600804       307.786480908     -7717.069456080     -7714.408154787       315.457244361
      2164         2164.000000         0.610870411       306.917086729     -7717.069745656     -7714.409220953       315.478140520
      2165         2165.000000         0.606025452       304.482854085     -7717.058847197     -7714.400777784       341.055926366
      2166         2166.000000         0.605662933       304.300715200     -7717.069369074     -7714.410309845       350.859335128
      2167         2167.000000         0.614583379       308.782577953     -7717.077808731     -7714.410806121       359.934574526
      2168         2168.000000         0.620122196       311.565422390     -7717.084973632     -7714.409842336       392.352685765
      2169         2169.000000         0.618211184       310.605280674     -7717.078603695     -7714.404900107       299.882696520
      2170         2170.000000         0.601783472       302.351573473     -7717.068981045     -7714.406515722       322.309515362
      2171         2171.000000         0.593365163       298.121997512     -7717.061041557     -7714.407779479       318.655733078
      2172         2172.000000         0.596145214       299.518766860     -7717.064890814     -7714.408474920       342.118661509
      2173         2173.000000         0.603007906       302.966760908     -7717.067158638     -7714.401927477       421.092715550
      2174         2174.000000         0.603380435       303.153928951     -7717.058729719     -7714.394440748       479.090035131
      2175         2175.000000         0.595533927       299.211640345     -7717.053778882     -7714.399401991       509.947607996
      2176         2176.000000         0.590166798       296.515056112     -7717.047704356     -7714.393685211       439.873558102
      2177         2177.000000         0.604937781       303.936380108     -7717.057309554     -7714.389403778       351.867861569
      2178         2178.000000         0.619260221       311.132343876     -7717.082207516     -7714.400857240       416.684035824
      2179         2179.000000         0.624387197       313.708269489     -7717.084896994     -7714.401220054       364.794907993
      2180         2180.000000         0.617566581       310.281415511     -7717.068756411     -7714.392265520       501.717788846
      2181         2181.000000         0.607306301       305.126385443     -7717.060994054     -7714.392389296       349.339368549
      2182         2182.000000         0.605737025       304.337940782     -7717.059732283     -7714.389928497       527.842366975
      2183         2183.000000         0.611039236       307.001908726     -7717.076212871     -7714.399045538       398.629478003
      2184         2184.000000         0.606805107       304.874572955     -7717.070344673     -7714.392999788       503.768241780
      2185         2185.000000         0.603693377       303.311159031     -7717.067575784     -7714.395805707       406.169095283
      2186         2186.000000         0.603054673       302.990257655     -7717.061798502     -7714.390765467       512.154903885
      2187         2187.000000         0.604528503       303.730748268     -7717.068066044     -7714.393006371       339.058646059
      2188         2188.000000         0.604514466       303.723695697     -7717.065639577     -7714.386199876       542.066499985
      2189         2189.000000         0.605279467       304.108051855     -7717.072071815     -7714.390242766       316.934333431
      2190         2190.000000         0.603628196       303.278410795     -7717.071335844     -7714.391021388       571.499418736
      2191         2191.000000         0.601133946       302.025234984     -7717.072595318     -7714.395469873       365.373199136
      2192         2192.000000         0.602084133       302.502633319     -7717.064667926     -7714.387887806       582.146063234
      2193         2193.000000         0.605120881       304.028374316     -7717.070060930     -7714.391953640       342.661600548
      2194         2194.000000         0.602339508       302.630940211     -7717.071164218     -7714.391325024       428.589843032
      2195         2195.000000         0.605467021       304.202283614     -7717.079420573     -7714.395465506       271.816383203
      2196         2196.000000         0.610512588       306.737307031     -7717.083824344     -7714.394217117       481.581709493
      2197         2197.000000         0.611606153       307.286742461     -7717.092224777     -7714.398918112       309.746573698
      2198         2198.000000         0.611015097       306.989780489     -7717.097722239     -7714.403245093       302.168056048
      2199         2199.000000         0.618171644       310.585415006     -7717.098699481     -7714.402234102       260.265706946
      2200         2200.000000         0.619599411       311.302762095     -7717.099313410     -7714.400565638       331.316577408
