#     Step Nr.          Time[fs]        Kin.[a.u.]          Temp[K]            Pot.[a.u.]        Cons Qty[a.u.]        UsedTime[s]
       201          201.000000         1.007303973       506.095556552     -7715.753579049     -7714.258915129      1522.653196350
       202          202.000000         1.016990265       510.962200459     -7715.763873131     -7714.263763246        78.146107133
       203          203.000000         1.018704724       511.823588763     -7715.773462618     -7714.269434669        56.861439673
       204          204.000000         1.018366655       511.653734378     -7715.781830565     -7714.275621801        57.144628120
       205          205.000000         1.014711203       509.817140605     -7715.789613358     -7714.281918483        50.107578115
       206          206.000000         1.012253557       508.582355934     -7715.795166544     -7714.287674049        68.145389188
       207          207.000000         1.013342115       509.129275556     -7715.800185130     -7714.291444079        61.008240013
       208          208.000000         1.013891771       509.405436856     -7715.807708982     -7714.295055030        64.636480044
       209          209.000000         1.019939258       512.443850534     -7715.815107366     -7714.298804597       112.235718457
       210          210.000000         1.025929242       515.453373568     -7715.824594294     -7714.302832650        50.259529440
       211          211.000000         1.032022939       518.515004429     -7715.836102171     -7714.307116758       105.219749308
       212          212.000000         1.029526773       517.260865900     -7715.844770670     -7714.310046014        75.688317158
       213          213.000000         1.031057228       518.029806251     -7715.854718798     -7714.313264421       137.560210058
       214          214.000000         1.032112148       518.559825138     -7715.865971920     -7714.316797655       116.202441189
       215          215.000000         1.033476303       519.245211964     -7715.871201876     -7714.318633083       130.665736537
       216          216.000000         1.035819828       520.422659242     -7715.872510140     -7714.318612004       116.310809629
       217          217.000000         1.037616274       521.325240237     -7715.879290244     -7714.320658891       159.656415732
       218          218.000000         1.042761613       523.910391622     -7715.885096062     -7714.321163167       116.358567756
       219          219.000000         1.038189115       521.613050728     -7715.892715854     -7714.325509799       186.847242816
       220          220.000000         1.039397178       522.220012508     -7715.897431336     -7714.329950624       174.551607143
       221          221.000000         1.034355900       519.687144297     -7715.894884694     -7714.329709763       152.797406379
       222          222.000000         1.031195057       518.099054821     -7715.893864125     -7714.327878393       163.690227460
       223          223.000000         1.032287969       518.648162063     -7715.896651755     -7714.328689912       192.820334027
       224          224.000000         1.026765471       515.873516282     -7715.891057318     -7714.328129963       163.724261923
       225          225.000000         1.019807305       512.377553723     -7715.883411448     -7714.326695227       193.123917562
       226          226.000000         1.019479370       512.212791150     -7715.883096234     -7714.324884400       163.976463268
       227          227.000000         1.021034439       512.994097939     -7715.884569366     -7714.322195742       174.767467340
       228          228.000000         1.023028435       513.995933156     -7715.882971172     -7714.319894755       171.241128656
       229          229.000000         1.021049126       513.001476772     -7715.880612942     -7714.317726832       193.380584280
       230          230.000000         1.013356135       509.136319397     -7715.879456844     -7714.313770050       219.386365389
       231          231.000000         1.013490752       509.203954246     -7715.883851906     -7714.311982256       252.235213479
       232          232.000000         1.013051260       508.983142545     -7715.883323579     -7714.309189145       204.834260491
       233          233.000000         1.006033994       505.457486302     -7715.871941136     -7714.303516939       241.139324270
       234          234.000000         1.003128020       503.997450038     -7715.870232996     -7714.304970518       241.008254394
       235          235.000000         1.007397515       506.142554573     -7715.876945321     -7714.305014357       244.568368714
       236          236.000000         1.011913139       508.411321064     -7715.878555020     -7714.298616996       313.910867474
       237          237.000000         1.014809558       509.866556865     -7715.876770187     -7714.294550369       310.307038459
       238          238.000000         1.012319446       508.615459838     -7715.874767051     -7714.291259758       325.533736339
       239          239.000000         1.019263442       512.104303212     -7715.884285564     -7714.291332539       322.141333302
       240          240.000000         1.037340905       521.186887998     -7715.895661996     -7714.286055629       314.523835136
       241          241.000000         1.037242508       521.137450690     -7715.902418711     -7714.285605938       314.789575135
       242          242.000000         1.030361515       517.680261916     -7715.897905044     -7714.288526039       322.830669709
       243          243.000000         1.016956460       510.945215495     -7715.890126965     -7714.286189467       346.491464698
       244          244.000000         1.017064092       510.999293051     -7715.879579039     -7714.272529213       338.025543220
       245          245.000000         1.016231367       510.580910459     -7715.881338304     -7714.273862660       322.652717448
       246          246.000000         0.999918701       502.385005314     -7715.875640275     -7714.278886888       344.879580612
       247          247.000000         0.982348060       493.557060701     -7715.848923780     -7714.266085989       315.735023811
       248          248.000000         0.979843488       492.298699112     -7715.850501243     -7714.268167883       359.348489814
       249          249.000000         0.991702131       498.256788155     -7715.869197534     -7714.275877992       326.506407144
       250          250.000000         0.996741179       500.788535868     -7715.858662182     -7714.260176060       355.128520788
       251          251.000000         0.988610933       496.703690387     -7715.850800682     -7714.254400457       527.598692536
       252          252.000000         0.993672939       499.246973002     -7715.869344865     -7714.267292193       461.661294851
       253          253.000000         1.009007419       506.951411964     -7715.881964756     -7714.262501317       410.127199363
       254          254.000000         1.025776880       515.376822706     -7715.892145257     -7714.254507274       501.715836316
       255          255.000000         1.029732953       517.364456115     -7715.913860930     -7714.267040211       494.399606260
       256          256.000000         1.031153727       518.078289568     -7715.917732854     -7714.269211303       492.785541154
       257          257.000000         1.031200945       518.102013256     -7715.918573715     -7714.263805973       492.256697946
       258          258.000000         1.040651175       522.850052866     -7715.934203592     -7714.266066351       521.466352089
       259          259.000000         1.045909138       525.491789393     -7715.948874018     -7714.273194685       480.697864808
       260          260.000000         1.040511824       522.780039708     -7715.949359597     -7714.273934691       490.874695956
       261          261.000000         1.039600258       522.322045120     -7715.942883698     -7714.265415894       402.294256748
       262          262.000000         1.039203244       522.122575354     -7715.947347127     -7714.266499575       454.949748767
       263          263.000000         1.036959650       520.995335266     -7715.946720687     -7714.269389103       403.189561692
       264          264.000000         1.025927503       515.452499548     -7715.952186208     -7714.285693469       391.573103314
       265          265.000000         1.009427988       507.162716650     -7715.940547206     -7714.285196973       335.546586738
       266          266.000000         1.005782571       505.331165251     -7715.939615342     -7714.289394494       434.480637907
       267          267.000000         0.997600061       501.220060289     -7715.943089450     -7714.296815395       443.651112061
       268          268.000000         0.984580729       494.678811313     -7715.927605564     -7714.292334673       414.954105464
       269          269.000000         0.968787716       486.743993625     -7715.912709556     -7714.288623483       406.224869358
       270          270.000000         0.959433954       482.044421416     -7715.922593882     -7714.299115107       458.180422799
       271          271.000000         0.962762845       483.716942331     -7715.929339810     -7714.299252626       399.854234356
       272          272.000000         0.965638077       485.161533546     -7715.936525572     -7714.301160871       417.449563094
       273          273.000000         0.970091229       487.398912104     -7715.947127627     -7714.309870689       493.377344356
       274          274.000000         0.966851105       485.770990075     -7715.950577712     -7714.310221656       589.890133602
       275          275.000000         0.972470211       488.594174250     -7715.968300598     -7714.318787820       567.264340169
       276          276.000000         0.979565658       492.159110337     -7715.966143315     -7714.307361601       442.529772563
       277          277.000000         0.978380709       491.563761380     -7715.968765100     -7714.309576078       521.212284804
       278          278.000000         0.974904129       489.817037453     -7715.973468383     -7714.315590475       482.511310785
       279          279.000000         0.980760517       492.759438316     -7715.983583755     -7714.318618571       554.000500883
       280          280.000000         0.987606006       496.198789011     -7715.979828070     -7714.305191641       497.386496434
       281          281.000000         0.984290513       494.532999399     -7715.989315698     -7714.311627797       588.874693924
       282          282.000000         0.984488122       494.632283566     -7715.994103534     -7714.319589704       495.557731635
       283          283.000000         0.980736022       492.747131245     -7715.993598860     -7714.320774325       488.685880516
       284          284.000000         0.988663081       496.729890842     -7715.991009980     -7714.311280239       499.259598534
       285          285.000000         0.994219464       499.521560908     -7716.001172328     -7714.313087839       495.275823838
       286          286.000000         0.989843778       497.323103460     -7715.996104946     -7714.309490043       379.991506786
       287          287.000000         0.984786792       494.782343071     -7715.996232915     -7714.313722091       470.035725882
       288          288.000000         0.988272370       496.533587532     -7716.007025030     -7714.319564612       514.463740123
       289          289.000000         0.995044123       499.935891256     -7716.011998644     -7714.315886461       482.897395206
       290          290.000000         0.996488334       500.661499899     -7716.003132640     -7714.303282586       512.804332424
       291          291.000000         0.989392694       497.096467148     -7716.008298580     -7714.308161672       440.300588702
       292          292.000000         0.987955266       496.374266115     -7716.015191603     -7714.311944866       495.537821151
       293          293.000000         0.991725496       498.268527376     -7716.014489110     -7714.303253890       472.000992021
       294          294.000000         0.996014329       500.423347812     -7716.021676852     -7714.305136889       571.271691805
       295          295.000000         0.989388755       497.094488110     -7716.005626286     -7714.291841018       413.399956733
       296          296.000000         0.985498527       495.139937168     -7716.008739846     -7714.297873139       599.952665997
       297          297.000000         0.985648673       495.215374239     -7716.010697428     -7714.295391511       410.404301866
       298          298.000000         0.986915085       495.851652485     -7716.007410975     -7714.287441637       530.634174642
       299          299.000000         0.980245892       492.500877443     -7716.013142587     -7714.294576668       664.625839096
       300          300.000000         0.979800511       492.277106437     -7716.013722804     -7714.296313270       481.034391492
       301          301.000000         0.980652400       492.705117351     -7716.005420068     -7714.281174325       479.883486432
       302          302.000000         0.985604831       495.193346791     -7716.004833067     -7714.270474173       575.467558546
       303          303.000000         0.987843265       496.317994127     -7716.017576512     -7714.281066685       570.849030052
       304          304.000000         0.984926089       494.852329330     -7716.018043262     -7714.287782482       393.936438667
       305          305.000000         0.979266100       492.008604675     -7716.006203269     -7714.278805448       343.856956278
       306          306.000000         0.983517222       494.144478272     -7716.015839738     -7714.281766576       335.962335513
       307          307.000000         0.988479514       496.637662105     -7716.017169593     -7714.276804453       311.328172823
       308          308.000000         0.987345207       496.067756716     -7716.013721998     -7714.273128552       362.595833303
       309          309.000000         0.985156209       494.967947513     -7716.008217619     -7714.266116851       326.640795411
       310          310.000000         0.995960472       500.396288625     -7716.022277459     -7714.268603528       382.482636666
       311          311.000000         1.012941117       508.927803625     -7716.044174010     -7714.270932934       444.556422786
       312          312.000000         1.027375314       516.179917286     -7716.059366801     -7714.271833597       437.110697616
       313          313.000000         1.028539302       516.764735226     -7716.060486711     -7714.268889663       433.312579410
       314          314.000000         1.037266075       521.149291111     -7716.066604338     -7714.268949563       481.677362349
       315          315.000000         1.048351810       526.719051156     -7716.076595960     -7714.266190555       677.781154294
       316          316.000000         1.047191323       526.135992527     -7716.089509452     -7714.273790931       419.273708945
       317          317.000000         1.035510521       520.267255468     -7716.068867726     -7714.263266550       503.095250683
       318          318.000000         1.011210965       508.058530429     -7716.047446942     -7714.259720666       514.563378103
       319          319.000000         0.995572943       500.201583901     -7716.040881718     -7714.265185386       670.511624774
       320          320.000000         0.992061805       498.437497552     -7716.042772019     -7714.270265006       448.632509572
       321          321.000000         0.982722296       493.745086768     -7716.032187318     -7714.266873496       522.620740627
       322          322.000000         0.963492791       484.083686427     -7716.017218556     -7714.269532067       481.342683861
       323          323.000000         0.950689799       477.651131939     -7716.000093555     -7714.266703529       517.862826173
       324          324.000000         0.942580610       473.576866184     -7716.005014775     -7714.272134199       499.296272542
       325          325.000000         0.944753677       474.668671131     -7716.012822792     -7714.277571599       423.299637830
       326          326.000000         0.932667984       468.596506251     -7715.998039128     -7714.267405786       426.951336471
       327          327.000000         0.928609603       466.557470757     -7715.995960030     -7714.271514443       522.331936245
       328          328.000000         0.928217861       466.360649550     -7716.005001819     -7714.276905261       411.628900100
       329          329.000000         0.938339782       471.446164389     -7716.016485738     -7714.275030837       445.236486784
       330          330.000000         0.948815005       476.709186962     -7716.030364302     -7714.280353738       405.472793874
       331          331.000000         0.949254641       476.930071770     -7716.026679657     -7714.277576406       540.240459939
       332          332.000000         0.946578889       475.585704787     -7716.032178126     -7714.279364377       415.552821213
       333          333.000000         0.954166449       479.397890901     -7716.041160841     -7714.275574712       672.066274413
       334          334.000000         0.962925426       483.798627336     -7716.047513164     -7714.272649228       496.789048789
       335          335.000000         0.956682460       480.662000139     -7716.057433141     -7714.283934440       406.692129996
       336          336.000000         0.945971857       475.280715952     -7716.048421043     -7714.281757360       485.082317640
       337          337.000000         0.942195152       473.383202081     -7716.043919643     -7714.279845322       417.948685208
       338          338.000000         0.942558861       473.565938677     -7716.057628857     -7714.292494137       534.806205628
       339          339.000000         0.935675479       470.107549577     -7716.044226304     -7714.285064181       492.922413783
       340          340.000000         0.924056045       464.269645367     -7716.026522858     -7714.279838160       432.189023304
       341          341.000000         0.917547005       460.999335412     -7716.038582550     -7714.294901331       664.713816587
       342          342.000000         0.923818341       464.150216825     -7716.045574467     -7714.292533296       421.658430774
       343          343.000000         0.926585823       465.540671649     -7716.046608103     -7714.287776103       602.086594533
       344          344.000000         0.921633833       463.052663477     -7716.045045940     -7714.288032286       483.806133544
       345          345.000000         0.918914870       461.686586124     -7716.051425794     -7714.292103913       412.146715263
       346          346.000000         0.930299574       467.406555767     -7716.061428330     -7714.288308522       451.139679371
       347          347.000000         0.944043541       474.311880269     -7716.078240471     -7714.289564479       449.528533769
       348          348.000000         0.950103444       477.356531977     -7716.085928919     -7714.292136102       516.501497556
       349          349.000000         0.956279654       480.459619621     -7716.085668061     -7714.291850546       410.045436461
       350          350.000000         0.961382780       483.023562144     -7716.097311706     -7714.294297142       560.091776568
       351          351.000000         0.973818123       489.271400030     -7716.118938894     -7714.300405097       563.517415078
       352          352.000000         0.981557051       493.159637630     -7716.132065298     -7714.306793139       489.720307076
       353          353.000000         0.971114416       487.912987916     -7716.119274597     -7714.297155941       533.746855769
       354          354.000000         0.967888333       486.292120475     -7716.116127491     -7714.294433792       408.867320278
       355          355.000000         0.971499792       488.106610794     -7716.112775262     -7714.281422454       499.686082372
       356          356.000000         0.980637545       492.697653953     -7716.131222735     -7714.289325212       579.804033976
       357          357.000000         0.978731472       491.739993720     -7716.144568931     -7714.304024078       504.015011960
       358          358.000000         0.965586252       485.135495062     -7716.117401102     -7714.287054769       481.877396464
       359          359.000000         0.960101514       482.379820919     -7716.112876922     -7714.285043630       609.988882675
       360          360.000000         0.971889945       488.302633526     -7716.126129133     -7714.288456149       445.751496196
       361          361.000000         0.979537780       492.145103581     -7716.142837530     -7714.297226646       553.581295314
       362          362.000000         0.974669848       489.699328697     -7716.142496127     -7714.298723412       417.445850936
       363          363.000000         0.973902914       489.314000963     -7716.135494966     -7714.294537654       425.288897257
       364          364.000000         0.978234982       491.490544287     -7716.143518106     -7714.295181333       418.899013345
       365          365.000000         0.989319431       497.059658008     -7716.150969427     -7714.288317123       386.795663072
       366          366.000000         0.995315113       500.072043464     -7716.154335477     -7714.284404168       408.004398114
       367          367.000000         0.989583517       497.192341743     -7716.140371562     -7714.272430812       378.886033949
       368          368.000000         0.989843732       497.323080288     -7716.149375440     -7714.280253893       494.500066624
       369          369.000000         0.997273829       501.056153156     -7716.158664608     -7714.282089197       477.798372779
       370          370.000000         0.997839020       501.340119661     -7716.161406998     -7714.284179396       396.691031511
       371          371.000000         0.986582805       495.684706058     -7716.130234954     -7714.264510753       425.600323706
       372          372.000000         0.970503302       487.605948499     -7716.117739084     -7714.265415602       399.463321573
       373          373.000000         0.964354980       484.516872586     -7716.127106389     -7714.278944904       469.862246004
       374          374.000000         0.965990351       485.338525062     -7716.124883794     -7714.272717961       404.192835453
       375          375.000000         0.963211312       483.942264086     -7716.122433995     -7714.267122054       609.989287000
       376          376.000000         0.956881734       480.762120233     -7716.121415055     -7714.267916822       384.816523025
       377          377.000000         0.956451400       480.545909216     -7716.119398055     -7714.267453039       587.433597675
       378          378.000000         0.960281296       482.470148053     -7716.127740423     -7714.272247378       425.782452720
       379          379.000000         0.959218033       481.935937268     -7716.121889864     -7714.264758448       455.566515415
       380          380.000000         0.949844421       477.226392322     -7716.112874216     -7714.262724542       577.598353941
       381          381.000000         0.937748057       471.148866437     -7716.101585501     -7714.259504328       427.039488058
       382          382.000000         0.938203880       471.377883789     -7716.086725693     -7714.243908376       528.543195962
       383          383.000000         0.943775788       474.177354239     -7716.104522309     -7714.255175455       555.120870565
       384          384.000000         0.946408236       475.499964118     -7716.112796135     -7714.259502269       479.170241004
       385          385.000000         0.945457030       475.022053520     -7716.113087437     -7714.259790722       421.251657514
       386          386.000000         0.949019601       476.811981364     -7716.104179699     -7714.250124987       409.912216679
       387          387.000000         0.953801517       479.214539533     -7716.118545863     -7714.260489804       398.882924472
       388          388.000000         0.951637036       478.127048453     -7716.124307882     -7714.264074659       320.030521774
       389          389.000000         0.948754657       476.678866852     -7716.099905326     -7714.244182633       405.663211250
       390          390.000000         0.941678131       473.123437381     -7716.090920405     -7714.243376395       468.124718714
       391          391.000000         0.935698716       470.119224456     -7716.096816428     -7714.254167287       475.813391182
       392          392.000000         0.936190470       470.366294416     -7716.094110328     -7714.253182294       480.764190562
       393          393.000000         0.931139568       467.828590547     -7716.088702398     -7714.251749654       442.016287351
       394          394.000000         0.921836141       463.154308528     -7716.085120778     -7714.254402405       519.719154538
       395          395.000000         0.919450734       461.955818100     -7716.080669841     -7714.252949761       396.640953844
       396          396.000000         0.919420678       461.940717528     -7716.074693667     -7714.244962715       441.100411027
       397          397.000000         0.923495740       463.988133796     -7716.083001744     -7714.249911524       468.086468737
       398          398.000000         0.924361161       464.422943622     -7716.092866818     -7714.259614982       570.108753856
       399          399.000000         0.918875972       461.667042834     -7716.084003845     -7714.255954786       494.229629539
       400          400.000000         0.911720422       458.071909648     -7716.070358134     -7714.249788982       446.875298944
