#     Step Nr.          Time[fs]        Kin.[a.u.]          Temp[K]            Pot.[a.u.]        Cons Qty[a.u.]        UsedTime[s]
      1201         1201.000000         0.757906713       380.791925738     -7716.817438185     -7714.299096364      1897.904091133
      1202         1202.000000         0.756430822       380.050400322     -7716.824604522     -7714.305508968        72.788481675
      1203         1203.000000         0.737634150       370.606466184     -7716.807741898     -7714.309642416        73.182523475
      1204         1204.000000         0.715183069       359.326462861     -7716.795659041     -7714.315690026        51.242935448
      1205         1205.000000         0.713069642       358.264622320     -7716.802268319     -7714.323338411        66.140643619
      1206         1206.000000         0.715234786       359.352446890     -7716.810221464     -7714.329025789        55.038769569
      1207         1207.000000         0.710513356       356.980278353     -7716.807202582     -7714.331808116        69.663147327
      1208         1208.000000         0.698872511       351.131616854     -7716.796879435     -7714.332323016       118.239199985
      1209         1209.000000         0.694066117       348.716760305     -7716.792843007     -7714.333708451       121.797449888
      1210         1210.000000         0.693465841       348.415166150     -7716.797704585     -7714.336902878        95.760932864
      1211         1211.000000         0.696167210       349.772403517     -7716.805139690     -7714.340341317       118.275767139
      1212         1212.000000         0.702321972       352.864714929     -7716.815405254     -7714.343479428        77.063593439
      1213         1213.000000         0.707909641       355.672104268     -7716.824307458     -7714.345659792       121.844359634
      1214         1214.000000         0.704806892       354.113202900     -7716.828696062     -7714.347469481       103.046908229
      1215         1215.000000         0.701918814       352.662158221     -7716.831202002     -7714.349781071       103.065815233
      1216         1216.000000         0.701656350       352.530289251     -7716.830913751     -7714.351837749       118.291913429
      1217         1217.000000         0.694331904       348.850298447     -7716.829077734     -7714.354325767       118.310584635
      1218         1218.000000         0.695093075       349.232730171     -7716.826742711     -7714.356309020       114.569678026
      1219         1219.000000         0.690963362       347.157855981     -7716.824219332     -7714.357720585       114.714266074
      1220         1220.000000         0.685650800       344.488687080     -7716.818799356     -7714.358205720       132.971138418
      1221         1221.000000         0.678820923       341.057180487     -7716.813199681     -7714.357774302       122.019029289
      1222         1222.000000         0.677569710       340.428538975     -7716.817140564     -7714.361583687       162.279657708
      1223         1223.000000         0.682070999       342.690102844     -7716.822869310     -7714.362958259       132.785053198
      1224         1224.000000         0.686562902       344.946950687     -7716.829741269     -7714.362399666       176.976666090
      1225         1225.000000         0.689191041       346.267395900     -7716.834651601     -7714.360973222       166.018055647
      1226         1226.000000         0.693476746       348.420645112     -7716.831450172     -7714.356923117       144.001083620
      1227         1227.000000         0.695465389       349.419790418     -7716.832180846     -7714.357030586       177.267367191
      1228         1228.000000         0.697162248       350.272336396     -7716.834619136     -7714.355872872       133.068657019
      1229         1229.000000         0.695428176       349.401093697     -7716.835332153     -7714.355627927       181.024687320
      1230         1230.000000         0.691292884       347.323416254     -7716.833849493     -7714.354803652       180.940984085
      1231         1231.000000         0.692089085       347.723448192     -7716.833970385     -7714.351407430       166.119914009
      1232         1232.000000         0.693525485       348.445132384     -7716.836716705     -7714.346297139       162.463667692
      1233         1233.000000         0.701852553       352.628867024     -7716.842958294     -7714.343540904       173.594663994
      1234         1234.000000         0.710656948       357.052422679     -7716.847982608     -7714.340675328       140.463336434
      1235         1235.000000         0.716939243       360.208809691     -7716.853126573     -7714.338763939       177.507664760
      1236         1236.000000         0.721842216       362.672190345     -7716.855990405     -7714.337443551       151.718607628
      1237         1237.000000         0.721284036       362.391746393     -7716.852773002     -7714.334312806       207.582762407
      1238         1238.000000         0.720037366       361.765387087     -7716.850844949     -7714.330427501       155.317005142
      1239         1239.000000         0.721974538       362.738672201     -7716.850211175     -7714.327681483       222.130183247
      1240         1240.000000         0.718304908       360.894955127     -7716.843502109     -7714.324462595       166.341913750
      1241         1241.000000         0.709016239       356.228087726     -7716.831856265     -7714.320724424       226.139227800
      1242         1242.000000         0.701624508       352.514291336     -7716.818922018     -7714.316165616       184.929582118
      1243         1243.000000         0.695301859       349.337628725     -7716.806020284     -7714.310109870       207.741012136
      1244         1244.000000         0.692396066       347.877683301     -7716.802802347     -7714.308151369       248.376073011
      1245         1245.000000         0.692811406       348.086360597     -7716.807810451     -7714.309300187       222.530793821
      1246         1246.000000         0.693102815       348.232772132     -7716.807126345     -7714.311925112       259.503394081
      1247         1247.000000         0.675728193       339.503312807     -7716.788494021     -7714.306417306       244.573478011
      1248         1248.000000         0.669554265       336.401372188     -7716.773311656     -7714.298927184       281.595662038
      1249         1249.000000         0.667821591       335.530831693     -7716.777250193     -7714.301866097       263.146636976
      1250         1250.000000         0.664807377       334.016412700     -7716.782409014     -7714.309844385       304.356076794
      1251         1251.000000         0.653762348       328.467104451     -7716.770083064     -7714.305454617       266.944186677
      1252         1252.000000         0.649194077       326.171887021     -7716.760209638     -7714.302201993       316.888474562
      1253         1253.000000         0.649766576       326.459525557     -7716.764701403     -7714.305317787       331.586407876
      1254         1254.000000         0.660614590       331.909848361     -7716.776736217     -7714.306956692       327.172270477
      1255         1255.000000         0.676534190       339.908266935     -7716.784926002     -7714.302236241       326.718081307
      1256         1256.000000         0.683305237       343.310216026     -7716.794341616     -7714.305248298       316.818077424
      1257         1257.000000         0.683348284       343.331843829     -7716.801592858     -7714.310622595       342.299782104
      1258         1258.000000         0.690736981       347.044115862     -7716.814812693     -7714.314945718       398.903539109
      1259         1259.000000         0.705003647       354.212057724     -7716.831288333     -7714.319871044       383.072548088
      1260         1260.000000         0.708842593       356.140843569     -7716.833790574     -7714.317148994       400.118666494
      1261         1261.000000         0.704632717       354.025692997     -7716.833602668     -7714.315198895       393.878260321
      1262         1262.000000         0.705605995       354.514692911     -7716.840632860     -7714.317793943       404.488716487
      1263         1263.000000         0.714393670       358.929848417     -7716.847958219     -7714.319582657       409.639466985
      1264         1264.000000         0.716959460       360.218967629     -7716.853910178     -7714.322248124       408.991150230
      1265         1265.000000         0.716108744       359.791545718     -7716.864997599     -7714.331776877       398.161531050
      1266         1266.000000         0.710642800       357.045314061     -7716.870707977     -7714.340008843       394.413646892
      1267         1267.000000         0.702297177       352.852257233     -7716.856036011     -7714.332110650       416.682061378
      1268         1268.000000         0.697446756       350.415280340     -7716.857510627     -7714.337421212       348.480116429
      1269         1269.000000         0.689347592       346.346051002     -7716.860078979     -7714.344982864       491.191821567
      1270         1270.000000         0.683271014       343.293021293     -7716.853649375     -7714.348343563       344.775153430
      1271         1271.000000         0.669839678       336.544770687     -7716.843767184     -7714.348154680       319.581008500
      1272         1272.000000         0.664089648       333.655807200     -7716.834106291     -7714.345369549       352.470666567
      1273         1273.000000         0.660114730       331.658705433     -7716.834422157     -7714.346241271       293.537711704
      1274         1274.000000         0.667814073       335.527054464     -7716.845337142     -7714.349045938       315.424260631
      1275         1275.000000         0.675846890       339.562949506     -7716.852353176     -7714.346916520       326.605760887
      1276         1276.000000         0.677350648       340.318476564     -7716.854554321     -7714.346570567       322.904370759
      1277         1277.000000         0.680391932       341.846496020     -7716.852932702     -7714.343516852       255.722048801
      1278         1278.000000         0.683789766       343.553655851     -7716.854896643     -7714.344310004       420.453491968
      1279         1279.000000         0.678264460       340.777599067     -7716.850217823     -7714.343711785       330.363933216
      1280         1280.000000         0.668279823       335.761059502     -7716.843412550     -7714.345615367       394.985708822
      1281         1281.000000         0.658657705       330.926658707     -7716.830813616     -7714.341371225       342.629911719
      1282         1282.000000         0.656434509       329.809667187     -7716.828847989     -7714.339252093       394.419814188
      1283         1283.000000         0.666295293       334.763979974     -7716.840154633     -7714.338666523       394.708804636
      1284         1284.000000         0.679853243       341.575844915     -7716.855147913     -7714.338693462       447.449726264
      1285         1285.000000         0.682921473       343.117403075     -7716.857792589     -7714.337546497       424.509711330
      1286         1286.000000         0.680557696       341.929780132     -7716.843899996     -7714.326866042       435.966910643
      1287         1287.000000         0.687661347       345.498838084     -7716.848720135     -7714.326774969       506.107484448
      1288         1288.000000         0.694909974       349.140735756     -7716.867328379     -7714.336827179       417.461009956
      1289         1289.000000         0.693105089       348.233915019     -7716.868962190     -7714.339170329       409.562022171
      1290         1290.000000         0.685237293       344.280930753     -7716.859116337     -7714.338214589       582.816192352
      1291         1291.000000         0.680394579       341.847826134     -7716.844412937     -7714.327042856       510.593362021
      1292         1292.000000         0.685451433       344.388520186     -7716.856593842     -7714.331449350       513.453945804
      1293         1293.000000         0.694478886       348.924145740     -7716.875047851     -7714.338705433       417.850388015
      1294         1294.000000         0.699257138       351.324863280     -7716.872215189     -7714.331351256       364.451485943
      1295         1295.000000         0.699235204       351.313843275     -7716.859285043     -7714.320270485       601.872811245
      1296         1296.000000         0.700908068       352.154332942     -7716.869885353     -7714.327056744       397.701630816
      1297         1297.000000         0.702892691       353.151458851     -7716.882891766     -7714.335129379       543.479084610
      1298         1298.000000         0.692857408       348.109473343     -7716.863887120     -7714.325121683       432.529702880
      1299         1299.000000         0.675449278       339.363179123     -7716.836985560     -7714.315498272       603.665939698
      1300         1300.000000         0.667223159       335.230163934     -7716.834323603     -7714.321888813       503.632685577
      1301         1301.000000         0.671775706       337.517481288     -7716.848886898     -7714.331790007       511.393147546
      1302         1302.000000         0.680673648       341.988037386     -7716.850012414     -7714.323405549       531.113361898
      1303         1303.000000         0.679519892       341.408360806     -7716.850655916     -7714.321453068       635.186698617
      1304         1304.000000         0.676552401       339.917416378     -7716.848875113     -7714.323414582       545.096653963
      1305         1305.000000         0.679512487       341.404640078     -7716.841902264     -7714.310748917       597.979533705
      1306         1306.000000         0.698573033       350.981151422     -7716.878823156     -7714.328052589       627.553363098
      1307         1307.000000         0.709241605       356.341317503     -7716.892746645     -7714.331402782       489.433590624
      1308         1308.000000         0.702268848       352.838024134     -7716.883298285     -7714.330531079       502.053396282
      1309         1309.000000         0.694913950       349.142733159     -7716.875376455     -7714.332006415       354.350460850
      1310         1310.000000         0.703756833       353.585626454     -7716.879258670     -7714.331692019       526.299312664
      1311         1311.000000         0.713972554       358.718268448     -7716.896293942     -7714.335596182       412.885771853
      1312         1312.000000         0.719152859       361.320987881     -7716.902922466     -7714.335699967       518.228277708
      1313         1313.000000         0.713647787       358.555097288     -7716.896591534     -7714.338207093       360.942643641
      1314         1314.000000         0.703129474       353.270424807     -7716.889109834     -7714.340911442       402.752967203
      1315         1315.000000         0.703802632       353.608637027     -7716.895498152     -7714.343305286       352.666744143
      1316         1316.000000         0.702313578       352.860497470     -7716.886703414     -7714.333201408       605.139750695
      1317         1317.000000         0.687141787       345.237797833     -7716.872599263     -7714.335356297       412.363326101
      1318         1318.000000         0.667248425       335.242858588     -7716.851960814     -7714.333222765       502.037091838
      1319         1319.000000         0.656645738       329.915794348     -7716.852013952     -7714.339476893       414.890261932
      1320         1320.000000         0.661362963       332.285849872     -7716.858197674     -7714.342573829       415.963357727
      1321         1321.000000         0.665668745       334.449186440     -7716.859648359     -7714.342223248       370.949486714
      1322         1322.000000         0.659401739       331.300480555     -7716.845126103     -7714.332741178       396.008901245
      1323         1323.000000         0.654390852       328.782881130     -7716.841046620     -7714.332730737       319.094708574
      1324         1324.000000         0.660198727       331.700907836     -7716.858796762     -7714.340740759       633.290680817
      1325         1325.000000         0.671219583       337.238071018     -7716.875283839     -7714.344613050       348.169607161
      1326         1326.000000         0.675106296       339.190855627     -7716.845992247     -7714.318558780       451.882242730
      1327         1327.000000         0.663043100       333.129994313     -7716.847329755     -7714.329940832       395.655026427
      1328         1328.000000         0.664089752       333.655859201     -7716.862271823     -7714.344304717       392.273814846
      1329         1329.000000         0.673870987       338.570204466     -7716.872404344     -7714.342879747       341.907633527
      1330         1330.000000         0.685776355       344.551769597     -7716.870154857     -7714.327362084       403.348863617
      1331         1331.000000         0.693405341       348.384768992     -7716.884163255     -7714.331749309       366.050230078
      1332         1332.000000         0.700057332       351.726901357     -7716.887216081     -7714.328162454       434.963586423
      1333         1333.000000         0.710748984       357.098663704     -7716.900711386     -7714.332208727       362.914021699
      1334         1334.000000         0.723799478       363.655569398     -7716.913515859     -7714.335558004       478.827427970
      1335         1335.000000         0.718223819       360.854214287     -7716.912047007     -7714.338815239       321.839006223
      1336         1336.000000         0.698749700       351.069913114     -7716.889131050     -7714.332058938       456.256722772
      1337         1337.000000         0.687722499       345.529562575     -7716.877335266     -7714.333350806       318.343085413
      1338         1338.000000         0.679700721       341.499213541     -7716.868097540     -7714.329806934       477.532880518
      1339         1339.000000         0.680294468       341.797527529     -7716.866630643     -7714.329487420       317.963177614
      1340         1340.000000         0.684328178       343.824167593     -7716.872226151     -7714.333448665       392.995166833
      1341         1341.000000         0.684897269       344.110093638     -7716.875369552     -7714.334607531       307.680990679
      1342         1342.000000         0.683349127       343.332267440     -7716.868035343     -7714.329083688       340.432606877
      1343         1343.000000         0.684042896       343.680834738     -7716.863673798     -7714.324069937       265.846916227
      1344         1344.000000         0.688794197       346.068011220     -7716.871563789     -7714.326129808       373.714672253
      1345         1345.000000         0.688770163       346.055935738     -7716.880207233     -7714.335140976       306.786510844
      1346         1346.000000         0.674592648       338.932785823     -7716.879107449     -7714.340998623       393.671753930
      1347         1347.000000         0.667173664       335.205296578     -7716.861567320     -7714.330339759       419.403641182
      1348         1348.000000         0.666507379       334.870537436     -7716.862872569     -7714.334695165       486.217834891
      1349         1349.000000         0.671762040       337.510615422     -7716.863710303     -7714.331747157       319.315318073
      1350         1350.000000         0.679179717       341.237447658     -7716.874038465     -7714.333509667       393.242077036
      1351         1351.000000         0.691045313       347.199029926     -7716.885336302     -7714.336395465       411.968159379
      1352         1352.000000         0.698793419       351.091878861     -7716.887154650     -7714.329855427       456.204148747
      1353         1353.000000         0.711163689       357.307022332     -7716.905704983     -7714.336228825       392.698596731
      1354         1354.000000         0.720428899       361.962103210     -7716.894391179     -7714.316265669       319.218435738
      1355         1355.000000         0.714001148       358.732634821     -7716.879591642     -7714.305583608       410.241605485
      1356         1356.000000         0.703799421       353.607023432     -7716.900025134     -7714.334179116       526.371718601
      1357         1357.000000         0.703083658       353.247405901     -7716.912276516     -7714.347232150       322.870966172
      1358         1358.000000         0.708683832       356.061077756     -7716.896815321     -7714.325963310       407.023079598
      1359         1359.000000         0.709767237       356.605408900     -7716.902200327     -7714.326125363       436.529563013
      1360         1360.000000         0.709509667       356.475999061     -7716.914990177     -7714.337868372       433.539268561
      1361         1361.000000         0.703647499       353.530693874     -7716.914046152     -7714.339978221       315.431000379
      1362         1362.000000         0.704810288       354.114909146     -7716.903239989     -7714.330239800       415.605892176
      1363         1363.000000         0.706865365       355.147433052     -7716.923300283     -7714.346131314       393.160682681
      1364         1364.000000         0.710501359       356.974250440     -7716.926087831     -7714.348848852       449.637222507
      1365         1365.000000         0.701073166       352.237282509     -7716.907288518     -7714.335621842       423.605288411
      1366         1366.000000         0.694000477       348.683780865     -7716.901925122     -7714.336871404       555.009370553
      1367         1367.000000         0.693063798       348.213169053     -7716.904872361     -7714.344153891       423.928934979
      1368         1368.000000         0.695252759       349.312959779     -7716.910538184     -7714.351369872       487.143701909
      1369         1369.000000         0.693285482       348.324549017     -7716.909103763     -7714.349553240       487.532115181
      1370         1370.000000         0.695724443       349.549945758     -7716.901583649     -7714.336225330       445.275242804
      1371         1371.000000         0.708787215       356.113020533     -7716.918823915     -7714.340099716       567.319275217
      1372         1372.000000         0.725759086       364.640127190     -7716.936370441     -7714.342995542       400.591579814
      1373         1373.000000         0.730647757       367.096321485     -7716.941758951     -7714.341023631       501.734742280
      1374         1374.000000         0.723202369       363.355566179     -7716.946568111     -7714.348927601       387.960842841
      1375         1375.000000         0.711556473       357.504367172     -7716.942140360     -7714.355569796       417.171075704
      1376         1376.000000         0.692788403       348.074803751     -7716.918033942     -7714.349035913       502.124798050
      1377         1377.000000         0.673461959       338.364698521     -7716.902721179     -7714.353007723       596.131772937
      1378         1378.000000         0.658764389       330.980259123     -7716.883715441     -7714.348596603       476.937634036
      1379         1379.000000         0.653212818       328.191006617     -7716.878385089     -7714.349589518       423.502892505
      1380         1380.000000         0.652261970       327.713275772     -7716.879094958     -7714.351260230       412.828725951
      1381         1381.000000         0.654618190       328.897101878     -7716.880356661     -7714.351754168       342.690549768
      1382         1382.000000         0.658620902       330.908167941     -7716.891047014     -7714.355762040       490.762756487
      1383         1383.000000         0.671353617       337.305413035     -7716.903452762     -7714.355390989       401.911842288
      1384         1384.000000         0.677010590       340.147622194     -7716.908172565     -7714.353458717       457.800975499
      1385         1385.000000         0.667310179       335.273885062     -7716.895732050     -7714.349350095       487.220926464
      1386         1386.000000         0.651596082       327.378716706     -7716.881497019     -7714.347210347       491.505185245
      1387         1387.000000         0.648222415       325.683698992     -7716.881833318     -7714.347857174       506.002620697
      1388         1388.000000         0.655595861       329.388308885     -7716.880005544     -7714.337206980       361.197967219
      1389         1389.000000         0.669449368       336.348668783     -7716.878763914     -7714.326427314       512.611495236
      1390         1390.000000         0.677867486       340.578149180     -7716.897637786     -7714.340380676       689.170965015
      1391         1391.000000         0.683046868       343.180404391     -7716.904042098     -7714.344242725       399.478115138
      1392         1392.000000         0.686006031       344.667164482     -7716.882855814     -7714.317253768       452.768092520
      1393         1393.000000         0.694523970       348.946797246     -7716.898278511     -7714.322114405       790.518596600
      1394         1394.000000         0.702639228       353.024112497     -7716.924464715     -7714.338772499       418.405193788
      1395         1395.000000         0.706478166       354.952894157     -7716.926038317     -7714.339838858       426.291348843
      1396         1396.000000         0.697363126       350.373262498     -7716.909597650     -7714.330621533       389.103254001
      1397         1397.000000         0.687183815       345.258913714     -7716.902629742     -7714.331028530       418.556833917
      1398         1398.000000         0.683037193       343.175543525     -7716.896202943     -7714.329169575       411.075235236
      1399         1399.000000         0.683646141       343.481494528     -7716.894498520     -7714.326881494       434.181675787
      1400         1400.000000         0.696577040       349.978312702     -7716.908026735     -7714.330100319       406.561498439
