#     Step Nr.          Time[fs]        Kin.[a.u.]          Temp[K]            Pot.[a.u.]        Cons Qty[a.u.]        UsedTime[s]
      1401         1401.000000         0.710184406       356.815005191     -7716.927228465     -7714.336432762      1593.500307630
      1402         1402.000000         0.719112980       361.300951571     -7716.938093497     -7714.339371456        90.934366528
      1403         1403.000000         0.720898518       362.198051831     -7716.947969078     -7714.343594066        72.920855826
      1404         1404.000000         0.718372801       360.929066603     -7716.954580599     -7714.348349743        54.669979133
      1405         1405.000000         0.710964106       357.206746508     -7716.951634252     -7714.351814708        54.762497245
      1406         1406.000000         0.702208452       352.807679619     -7716.944225584     -7714.354768762        65.906525299
      1407         1407.000000         0.690666629       347.008769253     -7716.935936157     -7714.356526223        54.825420928
      1408         1408.000000         0.683755356       343.536367207     -7716.928886197     -7714.358381931       117.707738357
      1409         1409.000000         0.677105216       340.195165125     -7716.926048374     -7714.360268120        73.290208106
      1410         1410.000000         0.678492677       340.892261132     -7716.929634836     -7714.363523965       117.592308642
      1411         1411.000000         0.679064626       341.179623299     -7716.931705418     -7714.366270948        95.189797675
      1412         1412.000000         0.674588427       338.930665159     -7716.931285274     -7714.368753424       117.715463797
      1413         1413.000000         0.667188371       335.212685825     -7716.930233725     -7714.370750353       102.564617245
      1414         1414.000000         0.666171657       334.701862064     -7716.928665255     -7714.372525479       102.438867752
      1415         1415.000000         0.661255568       332.231892237     -7716.924189459     -7714.372992592       117.817779368
      1416         1416.000000         0.651946026       327.554537558     -7716.918005804     -7714.374076249       128.769679370
      1417         1417.000000         0.640269333       321.687865286     -7716.910774523     -7714.376441181       102.695950533
      1418         1418.000000         0.634072916       318.574625202     -7716.902713874     -7714.377101037        62.159341882
      1419         1419.000000         0.630586217       316.822817352     -7716.902550609     -7714.377466993       117.730727509
      1420         1420.000000         0.632152628       317.609822489     -7716.910722370     -7714.378354778        84.204895628
      1421         1421.000000         0.640263554       321.684961538     -7716.920141839     -7714.379703775       132.255213439
      1422         1422.000000         0.645615085       324.373709078     -7716.927538313     -7714.380978635       117.837791559
      1423         1423.000000         0.650034049       326.593910826     -7716.931204193     -7714.381974047       121.376479439
      1424         1424.000000         0.646546559       324.841705524     -7716.929085901     -7714.382154504        91.521876002
      1425         1425.000000         0.643450776       323.286304183     -7716.927718835     -7714.381210550        73.147913456
      1426         1426.000000         0.647521250       325.331415431     -7716.934208802     -7714.383319308       154.134057323
      1427         1427.000000         0.650144446       326.649377053     -7716.936979714     -7714.384986495       114.100311199
      1428         1428.000000         0.647320767       325.230687738     -7716.931969785     -7714.383989903       139.535653015
      1429         1429.000000         0.645476729       324.304195395     -7716.924599007     -7714.381162427       117.584129068
      1430         1430.000000         0.643847729       323.485743627     -7716.922161347     -7714.380042535       128.782363934
      1431         1431.000000         0.646026935       324.580633373     -7716.925372082     -7714.379825087       117.737658252
      1432         1432.000000         0.653953832       328.563310983     -7716.932020717     -7714.378551781       121.382606029
      1433         1433.000000         0.660795827       332.000906159     -7716.940434839     -7714.378598432       154.307845476
      1434         1434.000000         0.662157697       332.685145068     -7716.946438014     -7714.378658118       102.558694222
      1435         1435.000000         0.667034203       335.135227554     -7716.950956379     -7714.379155644       154.304561948
      1436         1436.000000         0.669138696       336.192579352     -7716.950062601     -7714.377999817       117.776742227
      1437         1437.000000         0.668716134       335.980273105     -7716.948772949     -7714.377265227       161.907443607
      1438         1438.000000         0.674422825       338.847462448     -7716.951921880     -7714.376645674       143.322472197
      1439         1439.000000         0.678775405       341.034311033     -7716.955130611     -7714.374844152       143.432147915
      1440         1440.000000         0.679518713       341.407768147     -7716.957967659     -7714.374320509       154.367374938
      1441         1441.000000         0.681740437       342.524020030     -7716.956114660     -7714.372063744       121.459041019
      1442         1442.000000         0.678420645       340.856070687     -7716.951536866     -7714.372160563       176.319002334
      1443         1443.000000         0.665299000       334.263416829     -7716.943232865     -7714.372733145       179.906602242
      1444         1444.000000         0.658487989       330.841389010     -7716.931134086     -7714.369801093       165.053947735
      1445         1445.000000         0.652695380       327.931032238     -7716.922335307     -7714.365352455       143.010432018
      1446         1446.000000         0.655484591       329.332404130     -7716.922403428     -7714.365593470       164.882949117
      1447         1447.000000         0.653905714       328.539135171     -7716.918935299     -7714.366669461       153.870138900
      1448         1448.000000         0.641374850       322.243305449     -7716.903378121     -7714.364264479       153.890891811
      1449         1449.000000         0.628216598       315.632259357     -7716.887328356     -7714.361882476       164.808306262
      1450         1450.000000         0.627818503       315.432246056     -7716.883877936     -7714.359766358       139.091350269
      1451         1451.000000         0.635865541       319.475286169     -7716.893442852     -7714.359555493       164.659930215
      1452         1452.000000         0.644616289       323.871887903     -7716.899836661     -7714.358707575       131.796201182
      1453         1453.000000         0.647736214       325.439419093     -7716.898031428     -7714.358460451       175.640367020
      1454         1454.000000         0.644878883       324.003822000     -7716.895823035     -7714.358249460       160.973433422
      1455         1455.000000         0.647057753       325.098542672     -7716.900789700     -7714.356504072       160.629772106
      1456         1456.000000         0.658437200       330.815870865     -7716.908907509     -7714.354655968       164.081990570
      1457         1457.000000         0.656211340       329.697541396     -7716.911633363     -7714.353566087       164.107103176
      1458         1458.000000         0.656003055       329.592893851     -7716.908226432     -7714.352022329       138.582434351
      1459         1459.000000         0.653762660       328.467261541     -7716.908501650     -7714.352643925       163.977192193
      1460         1460.000000         0.658454440       330.824532811     -7716.915138930     -7714.352214933       120.236692830
      1461         1461.000000         0.667195204       335.216118932     -7716.929886315     -7714.355683253       185.570371840
      1462         1462.000000         0.668796026       336.020413258     -7716.937543548     -7714.359701646       163.847010363
      1463         1463.000000         0.657039655       330.113708556     -7716.928120597     -7714.359741777       174.947148811
      1464         1464.000000         0.650136843       326.645557233     -7716.912713381     -7714.357050037       152.986328176
      1465         1465.000000         0.641380851       322.246320225     -7716.904011907     -7714.356018964       189.548978581
      1466         1466.000000         0.639177207       321.139152550     -7716.898934182     -7714.356029194       164.020553512
      1467         1467.000000         0.635393463       319.238101732     -7716.895380240     -7714.357314886       185.718406458
      1468         1468.000000         0.630852064       316.956385867     -7716.890990993     -7714.358896678       131.311764807
      1469         1469.000000         0.618455285       310.727923618     -7716.886112738     -7714.360581902       178.609280406
      1470         1470.000000         0.618931838       310.967355839     -7716.887670912     -7714.362216974       164.089161213
      1471         1471.000000         0.626597927       314.818997326     -7716.898575079     -7714.363603853       197.468038957
      1472         1472.000000         0.637507999       320.300499622     -7716.910863325     -7714.364458338       174.949256765
      1473         1473.000000         0.642138981       322.627224500     -7716.918199118     -7714.363670919       174.872713198
      1474         1474.000000         0.645781136       324.457137140     -7716.923108598     -7714.363730254       174.722170792
      1475         1475.000000         0.646170164       324.652595264     -7716.925816877     -7714.364509720       152.959439748
      1476         1476.000000         0.649719965       326.436106928     -7716.931337989     -7714.368399534       178.341763882
      1477         1477.000000         0.653084890       328.126732420     -7716.936575340     -7714.371897824       138.340039548
      1478         1478.000000         0.650863252       327.010523875     -7716.940307299     -7714.376116943       197.334191230
      1479         1479.000000         0.652327782       327.746341742     -7716.940678361     -7714.378040205       193.061889839
      1480         1480.000000         0.652708000       327.937372721     -7716.938515659     -7714.376536468       219.147368287
      1481         1481.000000         0.653530888       328.350812989     -7716.940245336     -7714.375744833       186.110442156
      1482         1482.000000         0.657831999       330.511802580     -7716.948412623     -7714.375107467       175.029870842
      1483         1483.000000         0.669245946       336.246464352     -7716.958381391     -7714.374696154       193.197327999
      1484         1484.000000         0.674157918       338.714366271     -7716.961397471     -7714.373761503       164.250574157
      1485         1485.000000         0.675173336       339.224538524     -7716.959980384     -7714.373768315       186.044445061
      1486         1486.000000         0.671293960       337.275439650     -7716.959136569     -7714.374228495       142.595759704
      1487         1487.000000         0.669804556       336.527124485     -7716.962564600     -7714.376842575       205.097570137
      1488         1488.000000         0.669034815       336.140387079     -7716.963109938     -7714.376270815       164.326931452
      1489         1489.000000         0.663606569       333.413095831     -7716.958621584     -7714.374959147       219.867170351
      1490         1490.000000         0.652336211       327.750576680     -7716.950093789     -7714.374632446       175.632776017
      1491         1491.000000         0.648964620       326.056602152     -7716.946363811     -7714.372816004       223.385384631
      1492         1492.000000         0.661940817       332.576178751     -7716.955110490     -7714.371564899       175.661305447
      1493         1493.000000         0.673245256       338.255821048     -7716.960953715     -7714.369330359       223.524990441
      1494         1494.000000         0.670721312       336.987726621     -7716.955023712     -7714.367153925       183.024972291
      1495         1495.000000         0.659974997       331.588499907     -7716.943632680     -7714.363819590       161.015254313
      1496         1496.000000         0.654823969       329.000490651     -7716.941415931     -7714.363724502       219.901055669
      1497         1497.000000         0.656464777       329.824875022     -7716.941922110     -7714.361144396       153.658089196
      1498         1498.000000         0.655489593       329.334917040     -7716.939715136     -7714.358518685       230.805978517
      1499         1499.000000         0.646793017       324.965532640     -7716.932892789     -7714.359334601       164.757663507
      1500         1500.000000         0.637075441       320.083171316     -7716.920275437     -7714.356250946       198.209917803
      1501         1501.000000         0.641380228       322.246007542     -7716.922135671     -7714.353571529       186.738972963
      1502         1502.000000         0.659981447       331.591740520     -7716.937453595     -7714.353188489       179.346124171
      1503         1503.000000         0.662728604       332.971983597     -7716.938967512     -7714.350882889       164.405239672
      1504         1504.000000         0.646931683       325.035201785     -7716.924226704     -7714.348239348       186.378946247
      1505         1505.000000         0.635181252       319.131481417     -7716.912751677     -7714.345279494       131.611194502
      1506         1506.000000         0.634172560       318.624688903     -7716.916270163     -7714.345234457       230.827972195
      1507         1507.000000         0.641069366       322.089822292     -7716.926268772     -7714.348988848       175.524870999
      1508         1508.000000         0.638769666       320.934393595     -7716.928629242     -7714.350983825       223.465413223
      1509         1509.000000         0.632643169       317.856283140     -7716.923785116     -7714.351045878       198.394643174
      1510         1510.000000         0.631127601       317.094822823     -7716.919958899     -7714.348561338       223.694712631
      1511         1511.000000         0.641912360       322.513364128     -7716.930741646     -7714.349386341       241.964163173
      1512         1512.000000         0.657507758       330.348895299     -7716.945783076     -7714.351041157       179.365500611
      1513         1513.000000         0.659237793       331.218109880     -7716.949223578     -7714.350406958       227.315516915
      1514         1514.000000         0.652930513       328.049169195     -7716.946167117     -7714.350888092       219.954654254
      1515         1515.000000         0.650564357       326.860351489     -7716.943796046     -7714.351160133       220.116244571
      1516         1516.000000         0.650302528       326.728801407     -7716.943763055     -7714.350465795       242.073937122
      1517         1517.000000         0.655025789       329.101890108     -7716.948356346     -7714.353266282       256.463899846
      1518         1518.000000         0.653774309       328.473114107     -7716.948373144     -7714.353481195       301.111235783
      1519         1519.000000         0.650455526       326.805671606     -7716.946002201     -7714.353741126       300.809638286
      1520         1520.000000         0.652116884       327.640380734     -7716.945040998     -7714.353034551       263.802635442
      1521         1521.000000         0.653465361       328.317890652     -7716.951608744     -7714.357647812       315.358585443
      1522         1522.000000         0.648756412       325.951993013     -7716.949832310     -7714.356191960       304.983713651
      1523         1523.000000         0.648836912       325.992438031     -7716.945076636     -7714.351358994       315.770974543
      1524         1524.000000         0.647395622       325.268296826     -7716.946985742     -7714.352074379       327.045478617
      1525         1525.000000         0.644074406       323.599632166     -7716.946530591     -7714.354987565       334.538569588
      1526         1526.000000         0.635816219       319.450505464     -7716.945744140     -7714.361233846       313.420777408
      1527         1527.000000         0.631620493       317.342464302     -7716.942022482     -7714.360400533       371.300295288
      1528         1528.000000         0.638918066       321.008953686     -7716.948063063     -7714.362132803       409.297729457
      1529         1529.000000         0.646723342       324.930525863     -7716.957091902     -7714.365247287       397.503487119
      1530         1530.000000         0.642557110       322.837303292     -7716.953706824     -7714.362185503       391.530321820
      1531         1531.000000         0.637066454       320.078655723     -7716.942568276     -7714.356880304       354.216917472
      1532         1532.000000         0.637624430       320.358997303     -7716.941784988     -7714.356924386       405.776879512
      1533         1533.000000         0.642182725       322.649202507     -7716.948897255     -7714.356267013       434.544541731
      1534         1534.000000         0.644799077       323.963725301     -7716.956463623     -7714.359220256       475.530827963
      1535         1535.000000         0.639188995       321.145075421     -7716.949508186     -7714.359953812       419.758655889
      1536         1536.000000         0.630482578       316.770746473     -7716.947263251     -7714.368771655       410.362402925
      1537         1537.000000         0.626544455       314.792131494     -7716.942168451     -7714.365893772       349.664151509
      1538         1538.000000         0.626646740       314.843522368     -7716.942185392     -7714.364509460       390.604756554
      1539         1539.000000         0.624314652       313.671820696     -7716.937796608     -7714.366439880       360.379199040
      1540         1540.000000         0.615841322       309.414601039     -7716.927928651     -7714.368131021       394.911277008
      1541         1541.000000         0.610241719       306.601215624     -7716.923975554     -7714.371336015       423.403959547
      1542         1542.000000         0.612946484       307.960159425     -7716.918168665     -7714.363409747       409.741799570
      1543         1543.000000         0.619212747       311.108491902     -7716.934886428     -7714.373769433       393.950347310
      1544         1544.000000         0.620526886       311.768749089     -7716.947752907     -7714.385240970       456.034285419
      1545         1545.000000         0.622157615       312.588069571     -7716.945471620     -7714.384744809       298.272327103
      1546         1546.000000         0.628414340       315.731610080     -7716.953069094     -7714.386241313       401.455676801
      1547         1547.000000         0.641730769       322.422128135     -7716.967860567     -7714.388172923       338.131169813
      1548         1548.000000         0.646680107       324.908803448     -7716.975391577     -7714.388377254       430.074479523
      1549         1549.000000         0.654093475       328.633471503     -7716.977738634     -7714.388451283       316.170135600
      1550         1550.000000         0.658856882       331.026730293     -7716.976583539     -7714.382729681       492.423359186
      1551         1551.000000         0.667185764       335.211375681     -7716.988765185     -7714.388605952       320.277155188
      1552         1552.000000         0.673174088       338.220064586     -7716.996056673     -7714.389875697       486.941537617
      1553         1553.000000         0.674461652       338.866969849     -7716.999758335     -7714.388692789       322.734274902
      1554         1554.000000         0.677584527       340.435983076     -7716.997075212     -7714.382625587       399.546807550
      1555         1555.000000         0.679764878       341.531447878     -7717.004341906     -7714.385701645       279.046690236
      1556         1556.000000         0.677617486       340.452542540     -7717.009318710     -7714.388177920       520.657854288
      1557         1557.000000         0.671693065       337.475960516     -7717.011707063     -7714.392676887       300.250730852
      1558         1558.000000         0.671964465       337.612318935     -7717.005567274     -7714.387523061       431.984285374
      1559         1559.000000         0.676302133       339.791675380     -7717.012973877     -7714.390744925       296.935176118
      1560         1560.000000         0.676723320       340.003290701     -7717.008510095     -7714.382531013       498.165967596
      1561         1561.000000         0.672241656       337.751586594     -7717.009390543     -7714.385398870       314.821124433
      1562         1562.000000         0.660894754       332.050609984     -7717.001560472     -7714.384799298       322.448192859
      1563         1563.000000         0.655842843       329.512399025     -7716.991472918     -7714.379748688       322.687255298
      1564         1564.000000         0.656475639       329.830331919     -7716.992438519     -7714.379244785       260.205038286
      1565         1565.000000         0.660377957       331.790957438     -7716.993102693     -7714.379667632       263.800867743
      1566         1566.000000         0.653308970       328.239315583     -7716.981888586     -7714.373804332       300.818470851
      1567         1567.000000         0.646200471       324.667822059     -7716.975105635     -7714.372976646       253.347208797
      1568         1568.000000         0.640949947       322.029823099     -7716.968645546     -7714.371683370       361.077112681
      1569         1569.000000         0.631062516       317.062122253     -7716.962826386     -7714.371529161       297.105573037
      1570         1570.000000         0.627128825       315.085733887     -7716.958963071     -7714.369960572       358.803086598
      1571         1571.000000         0.626598442       314.819256048     -7716.960131038     -7714.368958035       300.669458184
      1572         1572.000000         0.630817523       316.939031377     -7716.964158467     -7714.368804273       301.365621126
      1573         1573.000000         0.632207848       317.637566783     -7716.965840243     -7714.367077265       245.306468063
      1574         1574.000000         0.631671320       317.368001031     -7716.957226288     -7714.359679034       319.756249797
      1575         1575.000000         0.627086882       315.064660678     -7716.955206631     -7714.358482659       303.169714559
      1576         1576.000000         0.635967896       319.526712031     -7716.959150478     -7714.354885329       450.123938805
      1577         1577.000000         0.643396975       323.259273195     -7716.977336784     -7714.361814775       315.964533161
      1578         1578.000000         0.643364464       323.242938818     -7716.986602397     -7714.368031227       403.878164269
      1579         1579.000000         0.636543557       319.815938778     -7716.975709601     -7714.362838545       324.540432060
      1580         1580.000000         0.635872220       319.478641810     -7716.972092323     -7714.361027963       414.452682859
      1581         1581.000000         0.644557426       323.842313673     -7716.979468521     -7714.360878422       350.012759947
      1582         1582.000000         0.650133970       326.644113685     -7716.985268275     -7714.358565320       405.623671691
      1583         1583.000000         0.648728830       325.938134946     -7716.983583633     -7714.359405484       313.777773148
      1584         1584.000000         0.640057099       321.581233425     -7716.969924753     -7714.356407175       405.561194363
      1585         1585.000000         0.634661209       318.870198571     -7716.966628955     -7714.358274197       330.583429539
      1586         1586.000000         0.638671037       320.884839910     -7716.977661256     -7714.367787730       389.243280832
      1587         1587.000000         0.639756514       321.430211668     -7716.978564829     -7714.369788471       304.617318755
      1588         1588.000000         0.633174672       318.123323946     -7716.971375780     -7714.369095287       330.937309808
      1589         1589.000000         0.627262491       315.152891476     -7716.963100318     -7714.365442381       337.575907313
      1590         1590.000000         0.628186612       315.617193887     -7716.960310609     -7714.360161849       370.585829858
      1591         1591.000000         0.636933449       320.011830474     -7716.967190799     -7714.361346304       346.261296694
      1592         1592.000000         0.642048996       322.582013537     -7716.973985569     -7714.363807372       486.264559890
      1593         1593.000000         0.645249524       324.190041659     -7716.981790211     -7714.366851209       359.759190987
      1594         1594.000000         0.650623341       326.889986336     -7716.988316954     -7714.366120146       360.013302557
      1595         1595.000000         0.656100359       329.641781800     -7716.991817589     -7714.364540762       337.915565721
      1596         1596.000000         0.656259422       329.721699008     -7716.993310123     -7714.367176150       327.359333504
      1597         1597.000000         0.649413636       326.282199508     -7716.989845749     -7714.368516218       327.131559862
      1598         1598.000000         0.647599295       325.370627566     -7716.992183525     -7714.373273235       361.029601769
      1599         1599.000000         0.651277699       327.218752828     -7716.994532955     -7714.374454528       349.219018688
      1600         1600.000000         0.650976258       327.067301120     -7716.990284631     -7714.372499695       415.307758608
