#     Step Nr.          Time[fs]        Kin.[a.u.]          Temp[K]            Pot.[a.u.]        Cons Qty[a.u.]        UsedTime[s]
      1001         1001.000000         0.753841699       378.749557573     -7716.745754638     -7714.315218194      1519.733639777
      1002         1002.000000         0.755653549       379.659878112     -7716.753652272     -7714.318336762       114.672259947
      1003         1003.000000         0.764705188       384.207655387     -7716.764943194     -7714.324269493        69.840667882
      1004         1004.000000         0.764014453       383.860612168     -7716.763952383     -7714.328609441        51.384820137
      1005         1005.000000         0.748747362       376.190031224     -7716.751959077     -7714.331855052        66.587666350
      1006         1006.000000         0.728885977       366.211157690     -7716.741671670     -7714.334342851        55.426287438
      1007         1007.000000         0.724670505       364.093195638     -7716.739370022     -7714.335754678        73.761659066
      1008         1008.000000         0.736221609       369.896769072     -7716.747970505     -7714.337512515        99.797825892
      1009         1009.000000         0.747792389       375.710228028     -7716.762195733     -7714.339549679        73.662510950
      1010         1010.000000         0.749934376       376.786417912     -7716.768676511     -7714.341409136       118.599098659
      1011         1011.000000         0.738083897       370.832430814     -7716.760086146     -7714.341682143        73.730914339
      1012         1012.000000         0.726717476       365.121647183     -7716.752452739     -7714.343197972       114.858625118
      1013         1013.000000         0.723980815       363.746677600     -7716.752594923     -7714.345761187       114.968451126
      1014         1014.000000         0.718271803       360.878322480     -7716.750065616     -7714.347179641       118.531945255
      1015         1015.000000         0.706338512       354.882728746     -7716.739067722     -7714.346951726       118.595046277
      1016         1016.000000         0.696461864       349.920445505     -7716.726638392     -7714.345918311       122.269160444
      1017         1017.000000         0.691349192       347.351706738     -7716.721193171     -7714.344023454       118.434779020
      1018         1018.000000         0.693260355       348.311924613     -7716.724275060     -7714.341318153       118.370200961
      1019         1019.000000         0.703098260       353.254742401     -7716.731865030     -7714.339812343       132.917807013
      1020         1020.000000         0.710023249       356.734035849     -7716.735932443     -7714.338634667       103.166768638
      1021         1021.000000         0.710438452       356.942644274     -7716.734681018     -7714.335555974       140.265498475
      1022         1022.000000         0.717321843       360.401038043     -7716.742761976     -7714.336201860       132.940668953
      1023         1023.000000         0.713835661       358.649490257     -7716.741227094     -7714.336068197       147.729595583
      1024         1024.000000         0.700147681       351.772295015     -7716.726425144     -7714.334481362       132.787320198
      1025         1025.000000         0.694300681       348.834611060     -7716.717391548     -7714.334617326       162.243953495
      1026         1026.000000         0.697619602       350.502122848     -7716.714054375     -7714.330996437       121.844388279
      1027         1027.000000         0.706106918       354.766369876     -7716.720857402     -7714.330776969       195.505668911
      1028         1028.000000         0.716066796       359.770470058     -7716.728928240     -7714.329560508       199.909822338
      1029         1029.000000         0.721805355       362.653670388     -7716.735920907     -7714.327468746       200.156108522
      1030         1030.000000         0.723670806       363.590920991     -7716.734929434     -7714.323861301       173.789459909
      1031         1031.000000         0.737493882       370.535991883     -7716.738487743     -7714.320526735       177.299579755
      1032         1032.000000         0.751023633       377.333688439     -7716.752419415     -7714.319027075       166.037608786
      1033         1033.000000         0.759932094       381.809529599     -7716.754581765     -7714.315608463       173.418034845
      1034         1034.000000         0.752941372       378.297210080     -7716.748712137     -7714.312741121       166.055592919
      1035         1035.000000         0.746547747       375.084887612     -7716.741306984     -7714.310991993       180.683343864
      1036         1036.000000         0.735008960       369.287502949     -7716.732260247     -7714.309125569       177.055370456
      1037         1037.000000         0.733773138       368.666594043     -7716.729924495     -7714.307558747       188.172859168
      1038         1038.000000         0.742888210       373.246241627     -7716.741908783     -7714.310104731       225.176143885
      1039         1039.000000         0.748269633       375.950007919     -7716.748104964     -7714.311315997       210.676562139
      1040         1040.000000         0.742893005       373.248650876     -7716.738618366     -7714.304953499       221.671907909
      1041         1041.000000         0.744711682       374.162401278     -7716.736161183     -7714.300076252       221.746852339
      1042         1042.000000         0.738911317       371.248148090     -7716.737499037     -7714.302563970       243.879333030
      1043         1043.000000         0.736605725       370.089758942     -7716.738165561     -7714.308534769       225.379744996
      1044         1044.000000         0.735387186       369.477533540     -7716.739704845     -7714.310353975       299.849091064
      1045         1045.000000         0.736022825       369.796894758     -7716.728117249     -7714.296848874       244.122304454
      1046         1046.000000         0.737306654       370.441923924     -7716.735651884     -7714.301384354       303.262206865
      1047         1047.000000         0.744535757       374.074012203     -7716.753031359     -7714.309450083       254.841712153
      1048         1048.000000         0.755052292       379.357791163     -7716.763779755     -7714.310711497       299.889216959
      1049         1049.000000         0.756618956       380.144923636     -7716.758793466     -7714.300533365       302.700243130
      1050         1050.000000         0.772253848       388.000297691     -7716.779262122     -7714.304680396       302.775562519
      1051         1051.000000         0.786347406       395.081265471     -7716.797071452     -7714.308597316       300.145455963
      1052         1052.000000         0.774956709       389.358284704     -7716.783857333     -7714.302055480       299.295992841
      1053         1053.000000         0.760031463       381.859455248     -7716.768279666     -7714.301499385       303.242531279
      1054         1054.000000         0.750048981       376.843998087     -7716.758774591     -7714.301606686       265.482958951
      1055         1055.000000         0.750481078       377.061094942     -7716.753505894     -7714.296255048       299.599399416
      1056         1056.000000         0.759379349       381.531816143     -7716.757757866     -7714.294970931       246.708757220
      1057         1057.000000         0.765255790       384.484292214     -7716.761427049     -7714.298052198       317.080684691
      1058         1058.000000         0.752992246       378.322770863     -7716.753313090     -7714.298204322       303.688124142
      1059         1059.000000         0.750466905       377.053973889     -7716.755952546     -7714.300549573       327.757818274
      1060         1060.000000         0.752337430       377.993773929     -7716.765386929     -7714.304558207       305.306099003
      1061         1061.000000         0.743987906       373.798757237     -7716.753933736     -7714.300227535       342.822071834
      1062         1062.000000         0.727734858       365.632806217     -7716.739219456     -7714.299753495       315.978313466
      1063         1063.000000         0.718178069       360.831228364     -7716.727479655     -7714.300506075       316.306046837
      1064         1064.000000         0.709930412       356.687391920     -7716.718985710     -7714.302245804       268.475899373
      1065         1065.000000         0.697102776       350.242456002     -7716.707765881     -7714.301343775       316.789719267
      1066         1066.000000         0.686017332       344.672842280     -7716.696294076     -7714.303001922       317.670725230
      1067         1067.000000         0.670514835       336.883987174     -7716.677820535     -7714.300241585       542.956398192
      1068         1068.000000         0.669631356       336.440104701     -7716.680646507     -7714.303661315       316.874815025
      1069         1069.000000         0.689017876       346.180393236     -7716.699833125     -7714.304020650       413.879703661
      1070         1070.000000         0.698726339       351.058176105     -7716.709607610     -7714.305746104       318.607178798
      1071         1071.000000         0.695521246       349.447854537     -7716.702107583     -7714.302178939       544.013743521
      1072         1072.000000         0.699554365       351.474197775     -7716.705719955     -7714.301867475       343.287045131
      1073         1073.000000         0.701501074       352.452274564     -7716.712912430     -7714.304496094       317.531056037
      1074         1074.000000         0.698047314       350.717016184     -7716.711373658     -7714.304573480       306.461393604
      1075         1075.000000         0.700473132       351.935810070     -7716.712079727     -7714.305056796       292.408553784
      1076         1076.000000         0.698429476       350.909024675     -7716.710223706     -7714.303138062       330.091766923
      1077         1077.000000         0.697899925       350.642964154     -7716.715085150     -7714.310012114       414.298286831
      1078         1078.000000         0.699542247       351.468109619     -7716.726954292     -7714.315662388       314.397144180
      1079         1079.000000         0.713925054       358.694403562     -7716.743368168     -7714.316173576       397.470447781
      1080         1080.000000         0.718575330       361.030822425     -7716.752628786     -7714.319253200       348.388649281
      1081         1081.000000         0.718048869       360.766314782     -7716.755336070     -7714.322524297       329.745549373
      1082         1082.000000         0.726415091       364.969721146     -7716.764353092     -7714.323386550       325.922192579
      1083         1083.000000         0.737501183       370.539660272     -7716.773767232     -7714.322338747       325.801054100
      1084         1084.000000         0.735368197       369.467992585     -7716.778423664     -7714.327984708       326.275914849
      1085         1085.000000         0.718780052       361.133680066     -7716.770956786     -7714.331140412       412.308542241
      1086         1086.000000         0.709404965       356.423393840     -7716.765789978     -7714.333749789       315.528243654
      1087         1087.000000         0.713711416       358.587066122     -7716.762545292     -7714.327769869       412.754982031
      1088         1088.000000         0.719016571       361.252513420     -7716.772993286     -7714.334279998       404.447705653
      1089         1089.000000         0.720805109       362.151121169     -7716.772849949     -7714.330591889       447.802458478
      1090         1090.000000         0.729515513       366.527453121     -7716.783982440     -7714.333079590       366.965596683
      1091         1091.000000         0.732819280       368.187350974     -7716.785470328     -7714.328635800       434.186681720
      1092         1092.000000         0.738641586       371.112627941     -7716.796724418     -7714.333158184       339.022786785
      1093         1093.000000         0.741284264       372.440377600     -7716.810780537     -7714.340539907       501.432837762
      1094         1094.000000         0.738796954       371.190688742     -7716.812289211     -7714.344220910       353.360832121
      1095         1095.000000         0.740624269       372.108779109     -7716.786872997     -7714.322057317       406.254959643
      1096         1096.000000         0.743710871       373.659567888     -7716.787261671     -7714.319145429       308.606546871
      1097         1097.000000         0.742848929       373.226506060     -7716.799840012     -7714.335336172       543.830375656
      1098         1098.000000         0.732347423       367.950277699     -7716.795403093     -7714.340185942       319.349820758
      1099         1099.000000         0.737671597       370.625280667     -7716.797053721     -7714.334154918       416.075621660
      1100         1100.000000         0.749339214       376.487392867     -7716.806375809     -7714.331255107       327.439934950
      1101         1101.000000         0.745760308       374.689257954     -7716.808713271     -7714.336447394       364.221530328
      1102         1102.000000         0.735909755       369.740085641     -7716.797928749     -7714.335890778       267.436742453
      1103         1103.000000         0.720586233       362.041151933     -7716.776971358     -7714.324938678       394.594302136
      1104         1104.000000         0.708956465       356.198055938     -7716.763989950     -7714.320840720       305.430458286
      1105         1105.000000         0.703445763       353.429336696     -7716.767468188     -7714.326306422       416.956380866
      1106         1106.000000         0.700978956       352.189949009     -7716.766641697     -7714.326182140       328.136571461
      1107         1107.000000         0.693940072       348.653431866     -7716.757181448     -7714.324387584       460.200071435
      1108         1108.000000         0.686761062       345.046511637     -7716.749625277     -7714.325416733       320.600066802
      1109         1109.000000         0.691323839       347.338968898     -7716.755856108     -7714.324586400       331.829009823
      1110         1110.000000         0.714048919       358.756636525     -7716.777727801     -7714.323360775       342.899731261
      1111         1111.000000         0.728980898       366.258848493     -7716.786747464     -7714.318836823       342.976150149
      1112         1112.000000         0.728369948       365.951891731     -7716.786445857     -7714.317976000       305.859464804
      1113         1113.000000         0.733838392       368.699379075     -7716.793763577     -7714.320212647       376.504436615
      1114         1114.000000         0.742119209       372.859875990     -7716.803812942     -7714.320631570       354.610468033
      1115         1115.000000         0.741992318       372.796122273     -7716.806482704     -7714.320032613       414.119047326
      1116         1116.000000         0.739779987       371.684589986     -7716.803580021     -7714.320430070       234.834794564
      1117         1117.000000         0.736754615       370.164565207     -7716.797729935     -7714.316354530       354.443928228
      1118         1118.000000         0.741666674       372.632510553     -7716.798785464     -7714.316719576       343.256687659
      1119         1119.000000         0.746836816       375.230123263     -7716.807243752     -7714.324127367       410.305101534
      1120         1120.000000         0.750193648       376.916682549     -7716.808552432     -7714.325203473       268.637138647
      1121         1121.000000         0.739417069       371.502250647     -7716.795603745     -7714.320549705       412.589785918
      1122         1122.000000         0.730630354       367.087578128     -7716.783109208     -7714.317969213       336.659149818
      1123         1123.000000         0.729831661       366.686294218     -7716.761726441     -7714.302249671       419.574860569
      1124         1124.000000         0.719671464       361.581548375     -7716.757824663     -7714.309444288       397.970063877
      1125         1125.000000         0.705008746       354.214620018     -7716.747069720     -7714.314428498       494.578051506
      1126         1126.000000         0.694292754       348.830628181     -7716.743319529     -7714.319946698       344.892147691
      1127         1127.000000         0.692165761       347.761971965     -7716.738928687     -7714.316862287       471.591971623
      1128         1128.000000         0.690475262       346.912621514     -7716.739958873     -7714.318949903       377.153736503
      1129         1129.000000         0.687935728       345.636694238     -7716.747764274     -7714.323298284       429.265669642
      1130         1130.000000         0.700037402       351.716887793     -7716.761504875     -7714.324369919       332.326621457
      1131         1131.000000         0.709526427       356.484419475     -7716.766421904     -7714.319988168       491.694673426
      1132         1132.000000         0.706685760       355.057194970     -7716.766386452     -7714.318810223       343.128307835
      1133         1133.000000         0.709171096       356.305892021     -7716.771709998     -7714.322226822       583.965398375
      1134         1134.000000         0.719537670       361.514326747     -7716.776235991     -7714.323451963       320.827787062
      1135         1135.000000         0.719440360       361.465435582     -7716.773780757     -7714.318991427       504.316831786
      1136         1136.000000         0.720017741       361.755527021     -7716.778721365     -7714.321906719       365.552871319
      1137         1137.000000         0.719092115       361.290468662     -7716.773649852     -7714.316199056       428.581395770
      1138         1138.000000         0.718960742       361.224463360     -7716.775897927     -7714.316178880       316.313334769
      1139         1139.000000         0.728012311       365.772205737     -7716.794663206     -7714.324527734       405.438578480
      1140         1140.000000         0.740140097       371.865518710     -7716.810367879     -7714.325969962       319.522101245
      1141         1141.000000         0.743263142       373.434617140     -7716.815254031     -7714.323968388       479.724575310
      1142         1142.000000         0.736633614       370.103771169     -7716.816467276     -7714.327402571       348.751333283
      1143         1143.000000         0.736046539       369.808809413     -7716.814645051     -7714.325986651       486.174330597
      1144         1144.000000         0.736690628       370.132416226     -7716.819967735     -7714.328794121       363.134302826
      1145         1145.000000         0.736726848       370.150614123     -7716.824645393     -7714.332463574       589.817933918
      1146         1146.000000         0.730726663       367.135965897     -7716.821354367     -7714.336949775       340.701742704
      1147         1147.000000         0.713997788       358.730946702     -7716.802484449     -7714.333229518       448.420245060
      1148         1148.000000         0.710883171       357.166082617     -7716.803926255     -7714.338860622       325.857714245
      1149         1149.000000         0.712470908       357.963802695     -7716.814400750     -7714.345452191       336.910826863
      1150         1150.000000         0.709856866       356.650440661     -7716.809303293     -7714.340968380       303.742542455
      1151         1151.000000         0.704742607       354.080904925     -7716.797487710     -7714.336435835       399.345462339
      1152         1152.000000         0.695474288       349.424261825     -7716.796794432     -7714.344849688       306.657839760
      1153         1153.000000         0.692582582       347.971393967     -7716.796528163     -7714.345388891       299.117002907
      1154         1154.000000         0.690708994       347.030054943     -7716.796209072     -7714.342666798       357.359805049
      1155         1155.000000         0.684150272       343.734783289     -7716.795252686     -7714.348711354       301.950512430
      1156         1156.000000         0.673306394       338.286538426     -7716.783740543     -7714.350800345       298.789570216
      1157         1157.000000         0.668902167       336.073741246     -7716.775256329     -7714.343359605       316.877681559
      1158         1158.000000         0.679280392       341.288029385     -7716.791476301     -7714.349625457       327.861259109
      1159         1159.000000         0.693709659       348.537666176     -7716.803710067     -7714.351084591       305.408584306
      1160         1160.000000         0.706198329       354.812297129     -7716.818694038     -7714.353581646       315.994522663
      1161         1161.000000         0.714705895       359.086717956     -7716.827438316     -7714.355441546       338.717771270
      1162         1162.000000         0.716531150       360.003773635     -7716.826843021     -7714.352690989       305.021362978
      1163         1163.000000         0.725964367       364.743265352     -7716.827641455     -7714.345640709       323.036797260
      1164         1164.000000         0.735776717       369.673243896     -7716.835027809     -7714.346599748       256.759888852
      1165         1165.000000         0.728313531       365.923546437     -7716.830675064     -7714.348015606       393.152305685
      1166         1166.000000         0.722194838       362.849356729     -7716.825477919     -7714.350506301       311.627058951
      1167         1167.000000         0.717763589       360.622982741     -7716.822032293     -7714.351306268       263.664816438
      1168         1168.000000         0.709357607       356.399600138     -7716.810980141     -7714.346475097       359.428314327
      1169         1169.000000         0.710942488       357.195885409     -7716.805416231     -7714.339889506       271.207937626
      1170         1170.000000         0.721397140       362.448572415     -7716.812140596     -7714.338239911       300.952274356
      1171         1171.000000         0.727918590       365.725117757     -7716.815775778     -7714.338149132       301.277724059
      1172         1172.000000         0.726175852       364.849521010     -7716.812771944     -7714.335532205       333.710982465
      1173         1173.000000         0.727961150       365.746501100     -7716.814871606     -7714.334454062       344.599428595
      1174         1174.000000         0.732576312       368.065277667     -7716.811755882     -7714.328206839       263.900682980
      1175         1175.000000         0.733800024       368.680102355     -7716.809190661     -7714.323512852       323.294206658
      1176         1176.000000         0.735278644       369.422998918     -7716.816589830     -7714.329172267       345.140729731
      1177         1177.000000         0.729531173       366.535320913     -7716.808023857     -7714.324322997       341.504120841
      1178         1178.000000         0.728583127       366.058998061     -7716.797981563     -7714.315244780       315.984516791
      1179         1179.000000         0.734951938       369.258853639     -7716.808551545     -7714.317157933       345.529198349
      1180         1180.000000         0.740145579       371.868272912     -7716.825041356     -7714.326548920       391.253610912
      1181         1181.000000         0.737746445       370.662885926     -7716.797146949     -7714.302968938       405.271989171
      1182         1182.000000         0.722162818       362.833268865     -7716.781385509     -7714.298432912       393.525334383
      1183         1183.000000         0.710401050       356.923852605     -7716.780275101     -7714.307786507       419.962811572
      1184         1184.000000         0.701267217       352.334778998     -7716.771818408     -7714.309983514       312.873718361
      1185         1185.000000         0.689153201       346.248384086     -7716.755131248     -7714.303741443       437.278180677
      1186         1186.000000         0.679943743       341.621314066     -7716.745212351     -7714.302806083       451.652103593
      1187         1187.000000         0.673453741       338.360569582     -7716.730982681     -7714.293985815       393.480761932
      1188         1188.000000         0.675671430       339.474793763     -7716.730644718     -7714.293351258       405.265789938
      1189         1189.000000         0.682620225       342.966047862     -7716.739949993     -7714.297513405       345.321580959
      1190         1190.000000         0.686395311       344.862748901     -7716.744091324     -7714.294233444       446.782423003
      1191         1191.000000         0.698475874       350.932336220     -7716.754832778     -7714.294264572       353.082676858
      1192         1192.000000         0.710090354       356.767751262     -7716.772317735     -7714.302200859       547.149511125
      1193         1193.000000         0.713290826       358.375751074     -7716.769769379     -7714.300773728       446.598097531
      1194         1194.000000         0.711327933       357.389542837     -7716.757838400     -7714.288412484       643.808863693
      1195         1195.000000         0.722537360       363.021448809     -7716.775304957     -7714.294302639       484.626662924
      1196         1196.000000         0.732813101       368.184246371     -7716.786884920     -7714.293208060       525.163248926
      1197         1197.000000         0.742343724       372.972677861     -7716.797918342     -7714.299093411       426.493924335
      1198         1198.000000         0.740826405       372.210337868     -7716.796196666     -7714.300571548       496.633227593
      1199         1199.000000         0.738727554       371.155820663     -7716.797639230     -7714.303392252       404.668149888
      1200         1200.000000         0.745756313       374.687250645     -7716.789463909     -7714.285966101       424.000264869
